# vtk DataFile Version 3.0
Structured Grid Example
ASCII
DATASET STRUCTURED_GRID
DIMENSIONS 15 30 1
POINTS 450 FLOAT
0.0833327 0.0333334 0
0.0833313 0.1 0
0.0833301 0.166667 0
0.083329 0.233333 0
0.0833281 0.3 0
0.0833274 0.366667 0
0.083327 0.433333 0
0.0833268 0.5 0
0.083327 0.566667 0
0.0833274 0.633333 0
0.0833281 0.7 0
0.083329 0.766667 0
0.0833301 0.833333 0
0.0833313 0.9 0
0.0833327 0.966667 0
0.249998 0.0333334 0
0.249993 0.1 0
0.249989 0.166667 0
0.249986 0.233334 0
0.249983 0.3 0
0.24998 0.366667 0
0.249979 0.433333 0
0.249979 0.5 0
0.249979 0.566667 0
0.24998 0.633333 0
0.249983 0.7 0
0.249986 0.766666 0
0.249989 0.833333 0
0.249993 0.9 0
0.249998 0.966667 0
0.416662 0.0333336 0
0.416654 0.100001 0
0.416646 0.166668 0
0.416639 0.233334 0
0.416633 0.300001 0
0.416628 0.366667 0
0.416626 0.433334 0
0.416625 0.5 0
0.416626 0.566666 0
0.416628 0.633333 0
0.416633 0.699999 0
0.416639 0.766666 0
0.416646 0.833332 0
0.416654 0.899999 0
0.416662 0.966666 0
0.583326 0.033334 0
0.58331 0.100002 0
0.583296 0.166669 0
0.583284 0.233336 0
0.583273 0.300003 0
0.583266 0.366669 0
0.583261 0.433335 0
0.583259 0.5 0
0.583261 0.566665 0
0.583266 0.633331 0
0.583273 0.699997 0
0.583284 0.766664 0
0.583296 0.833331 0
0.58331 0.899998 0
0.583326 0.966666 0
0.749987 0.0333351 0
0.749961 0.100005 0
0.749937 0.166674 0
0.749915 0.233342 0
0.749898 0.300008 0
0.749884 0.366673 0
0.749876 0.433337 0
0.749874 0.5 0
0.749876 0.566663 0
0.749884 0.633327 0
0.749898 0.699992 0
0.749915 0.766658 0
0.749937 0.833326 0
0.749961 0.899995 0
0.749987 0.966665 0
0.916644 0.033338 0
0.916601 0.100013 0
0.91656 0.166686 0
0.916524 0.233356 0
0.916494 0.300021 0
0.916472 0.366683 0
0.916458 0.433342 0
0.916454 0.5 0
0.916458 0.566658 0
0.916472 0.633317 0
0.916494 0.699979 0
0.916524 0.766644 0
0.91656 0.833314 0
0.916601 0.899987 0
0.916644 0.966662 0
1.0833 0.0333461 0
1.08322 0.100036 0
1.08315 0.166719 0
1.08309 0.233394 0
1.08304 0.300058 0
1.08301 0.366712 0
1.08298 0.433358 0
1.08298 0.5 0
1.08298 0.566642 0
1.08301 0.633288 0
1.08304 0.699942 0
1.08309 0.766606 0
1.08315 0.833281 0
1.08322 0.899964 0
1.0833 0.966654 0
1.24994 0.0333682 0
1.24981 0.100098 0
1.2497 0.16681 0
1.24959 0.233497 0
1.24951 0.300156 0
1.24945 0.366788 0
1.24942 0.433399 0
1.2494 0.5 0
1.24942 0.566601 0
1.24945 0.633212 0
1.24951 0.699844 0
1.24959 0.766503 0
1.2497 0.83319 0
1.24981 0.899902 0
1.24994 0.966632 0
1.41656 0.0334298 0
1.41634 0.10027 0
1.41615 0.16706 0
1.41598 0.233778 0
1.41585 0.300419 0
1.41575 0.36699 0
1.41569 0.433509 0
1.41567 0.5 0
1.41569 0.566491 0
1.41575 0.63301 0
1.41585 0.699581 0
1.41598 0.766222 0
1.41615 0.83294 0
1.41634 0.89973 0
1.41656 0.96657 0
1.58313 0.0336075 0
1.58275 0.10076 0
1.58242 0.167751 0
1.58215 0.234537 0
1.58195 0.301115 0
1.58181 0.367517 0
1.58173 0.433791 0
1.58171 0.5 0
1.58173 0.566209 0
1.58181 0.632483 0
1.58195 0.698885 0
1.58215 0.765463 0
1.58242 0.832249 0
1.58275 0.89924 0
1.58313 0.966392 0
1.74959 0.0341677 0
1.74885 0.102235 0
1.74829 0.169714 0
1.74791 0.236575 0
1.74766 0.302905 0
1.74751 0.368829 0
1.74744 0.434482 0
1.74741 0.5 0
1.74744 0.565518 0
1.74751 0.631171 0
1.74766 0.697095 0
1.74791 0.763425 0
1.74829 0.830286 0
1.74885 0.897765 0
1.74959 0.965832 0
1.91555 0.0363295 0
1.91388 0.107253 0
1.91312 0.175401 0
1.91283 0.241837 0
1.91276 0.307169 0
1.91277 0.371793 0
1.9128 0.435995 0
1.91281 0.5 0
1.9128 0.564005 0
1.91277 0.628207 0
1.91276 0.692831 0
1.91283 0.758163 0
1.91312 0.824599 0
1.91388 0.892747 0
1.91555 0.963671 0
2.07838 0.0591504 0
2.07417 0.125973 0
2.07554 0.190391 0
2.07663 0.253364 0
2.07743 0.315525 0
2.07798 0.377223 0
2.07829 0.438667 0
2.0784 0.5 0
2.07829 0.561333 0
2.07798 0.622777 0
2.07743 0.684475 0
2.07663 0.746636 0
2.07554 0.809609 0
2.07417 0.874027 0
2.07838 0.94085 0
2.24384 0.096456 0
2.23911 0.153168 0
2.24152 0.210396 0
2.24318 0.267878 0
2.24431 0.325632 0
2.24503 0.383617 0
2.24544 0.441767 0
2.24557 0.5 0
2.24544 0.558233 0
2.24503 0.616383 0
2.24431 0.674368 0
2.24318 0.732122 0
2.24152 0.789604 0
2.23911 0.846832 0
2.24384 0.903544 0
2.41462 0.118677 0
2.41292 0.170231 0
2.41356 0.223198 0
2.41406 0.277268 0
2.41444 0.332207 0
2.4147 0.387788 0
2.41485 0.44379 0
2.4149 0.5 0
2.41485 0.55621 0
2.4147 0.612212 0
2.41444 0.667793 0
2.41406 0.722732 0
2.41356 0.776802 0
2.41292 0.829769 0
2.41462 0.881323 0
2.58538 0.118677 0
2.58708 0.170231 0
2.58644 0.223198 0
2.58594 0.277268 0
2.58556 0.332207 0
2.5853 0.387788 0
2.58515 0.44379 0
2.5851 0.5 0
2.58515 0.55621 0
2.5853 0.612212 0
2.58556 0.667793 0
2.58594 0.722732 0
2.58644 0.776802 0
2.58708 0.829769 0
2.58538 0.881323 0
2.75616 0.096456 0
2.76089 0.153168 0
2.75848 0.210396 0
2.75682 0.267878 0
2.75569 0.325632 0
2.75497 0.383617 0
2.75456 0.441767 0
2.75443 0.5 0
2.75456 0.558233 0
2.75497 0.616383 0
2.75569 0.674368 0
2.75682 0.732122 0
2.75848 0.789604 0
2.76089 0.846832 0
2.75616 0.903544 0
2.92162 0.0591504 0
2.92583 0.125973 0
2.92446 0.190391 0
2.92337 0.253364 0
2.92257 0.315525 0
2.92202 0.377223 0
2.92171 0.438667 0
2.9216 0.5 0
2.92171 0.561333 0
2.92202 0.622777 0
2.92257 0.684475 0
2.92337 0.746636 0
2.92446 0.809609 0
2.92583 0.874027 0
2.92162 0.94085 0
3.08445 0.0363295 0
3.08612 0.107253 0
3.08688 0.175401 0
3.08717 0.241837 0
3.08724 0.307169 0
3.08723 0.371793 0
3.0872 0.435995 0
3.08719 0.5 0
3.0872 0.564005 0
3.08723 0.628207 0
3.08724 0.692831 0
3.08717 0.758163 0
3.08688 0.824599 0
3.08612 0.892747 0
3.08445 0.963671 0
3.25041 0.0341677 0
3.25115 0.102235 0
3.25171 0.169714 0
3.25209 0.236575 0
3.25234 0.302905 0
3.25249 0.368829 0
3.25256 0.434482 0
3.25259 0.5 0
3.25256 0.565518 0
3.25249 0.631171 0
3.25234 0.697095 0
3.25209 0.763425 0
3.25171 0.830286 0
3.25115 0.897765 0
3.25041 0.965832 0
3.41687 0.0336075 0
3.41725 0.10076 0
3.41758 0.167751 0
3.41785 0.234537 0
3.41805 0.301115 0
3.41819 0.367517 0
3.41827 0.433791 0
3.41829 0.5 0
3.41827 0.566209 0
3.41819 0.632483 0
3.41805 0.698885 0
3.41785 0.765463 0
3.41758 0.832249 0
3.41725 0.89924 0
3.41687 0.966392 0
3.58344 0.0334298 0
3.58366 0.10027 0
3.58385 0.16706 0
3.58402 0.233778 0
3.58415 0.300419 0
3.58425 0.36699 0
3.58431 0.433509 0
3.58433 0.5 0
3.58431 0.566491 0
3.58425 0.63301 0
3.58415 0.699581 0
3.58402 0.766222 0
3.58385 0.83294 0
3.58366 0.89973 0
3.58344 0.96657 0
3.75006 0.0333682 0
3.75019 0.100098 0
3.7503 0.16681 0
3.75041 0.233497 0
3.75049 0.300156 0
3.75055 0.366788 0
3.75058 0.433399 0
3.7506 0.5 0
3.75058 0.566601 0
3.75055 0.633212 0
3.75049 0.699844 0
3.75041 0.766503 0
3.7503 0.83319 0
3.75019 0.899902 0
3.75006 0.966632 0
3.9167 0.0333461 0
3.91678 0.100036 0
3.91685 0.166719 0
3.91691 0.233394 0
3.91696 0.300058 0
3.91699 0.366712 0
3.91702 0.433358 0
3.91702 0.5 0
3.91702 0.566642 0
3.91699 0.633288 0
3.91696 0.699942 0
3.91691 0.766606 0
3.91685 0.833281 0
3.91678 0.899964 0
3.9167 0.966654 0
4.08336 0.033338 0
4.0834 0.100013 0
4.08344 0.166686 0
4.08348 0.233356 0
4.08351 0.300021 0
4.08353 0.366683 0
4.08354 0.433342 0
4.08355 0.5 0
4.08354 0.566658 0
4.08353 0.633317 0
4.08351 0.699979 0
4.08348 0.766644 0
4.08344 0.833314 0
4.0834 0.899987 0
4.08336 0.966662 0
4.25001 0.0333351 0
4.25004 0.100005 0
4.25006 0.166674 0
4.25008 0.233342 0
4.2501 0.300008 0
4.25012 0.366673 0
4.25012 0.433337 0
4.25013 0.5 0
4.25012 0.566663 0
4.25012 0.633327 0
4.2501 0.699992 0
4.25008 0.766658 0
4.25006 0.833326 0
4.25004 0.899995 0
4.25001 0.966665 0
4.41667 0.033334 0
4.41669 0.100002 0
4.4167 0.166669 0
4.41672 0.233336 0
4.41673 0.300003 0
4.41673 0.366669 0
4.41674 0.433335 0
4.41674 0.5 0
4.41674 0.566665 0
4.41673 0.633331 0
4.41673 0.699997 0
4.41672 0.766664 0
4.4167 0.833331 0
4.41669 0.899998 0
4.41667 0.966666 0
4.58334 0.0333336 0
4.58335 0.100001 0
4.58335 0.166668 0
4.58336 0.233334 0
4.58337 0.300001 0
4.58337 0.366667 0
4.58337 0.433334 0
4.58338 0.5 0
4.58337 0.566666 0
4.58337 0.633333 0
4.58337 0.699999 0
4.58336 0.766666 0
4.58335 0.833332 0
4.58335 0.899999 0
4.58334 0.966666 0
4.75 0.0333334 0
4.75001 0.1 0
4.75001 0.166667 0
4.75001 0.233334 0
4.75002 0.3 0
4.75002 0.366667 0
4.75002 0.433333 0
4.75002 0.5 0
4.75002 0.566667 0
4.75002 0.633333 0
4.75002 0.7 0
4.75001 0.766666 0
4.75001 0.833333 0
4.75001 0.9 0
4.75 0.966667 0
4.91667 0.0333334 0
4.91667 0.1 0
4.91667 0.166667 0
4.91667 0.233333 0
4.91667 0.3 0
4.91667 0.366667 0
4.91667 0.433333 0
4.91667 0.5 0
4.91667 0.566667 0
4.91667 0.633333 0
4.91667 0.7 0
4.91667 0.766667 0
4.91667 0.833333 0
4.91667 0.9 0
4.91667 0.966667 0
POINT_DATA 450
SCALARS pressure float 1
LOOKUP_TABLE default
94457.4
94458.1
94463.6
94469.1
94474.8
94480.6
94483
94485.3
94483
94480.6
94474.9
94469.3
94463.8
94458.3
94457.6
94352.6
94322.3
94280.7
94218.8
94159.2
94105.8
94068.8
94057.5
94068.8
94105.8
94159.2
94218.8
94280.8
94322.3
94352.7
94808.2
94757.1
94674.5
94559.6
94447.7
94345.8
94279.4
94255.2
94279.4
94345.8
94447.7
94559.6
94674.5
94757.2
94808.2
94444.2
94390
94294
94163.9
94037.6
93920.1
93847.3
93816.9
93847.2
93920
94037.4
94163.6
94293.6
94389.6
94443.8
94890.4
94846.2
94756.4
94639.6
94524.3
94415.4
94350.4
94320
94350.3
94415.2
94524.1
94639.2
94755.9
94845.7
94889.8
94218.1
94196.7
94137.9
94064.5
93993.3
93918.7
93881.8
93855.7
93881.5
93918.2
93992.6
94063.5
94136.7
94195.4
94216.6
94720.8
94731
94719.8
94715.4
94709.1
94694.8
94696.3
94684.7
94696.1
94694.2
94708.4
94714.3
94718.6
94729.6
94719.4
93803
93833.2
93868.4
93915.6
93973.7
94005.8
94049.5
94043.6
94048.8
94004.6
93971.8
93913.2
93865.5
93830.1
93799.7
94612.2
94657
94724.8
94818.2
94919.7
94998.1
95066.4
95075.2
95065.9
94996.9
94918.2
94816
94722.6
94654.3
94609.6
93587.4
93584
93669.6
93722.7
93847.8
93903.6
93993.8
93984.6
93992.4
93901
93843.7
93717.7
93663.4
93577.3
93580.3
94981.4
94897.5
94950.5
94967.1
95058.3
95099.1
95168.8
95162.2
95167.9
95096.2
95055.9
94961.7
94947
94890.7
94976.9
94332.4
93619
93655
93338
93384.3
93272.1
93320.3
93269.7
93317.7
93268.1
93376.2
93329.1
93641.1
93603.5
94312.5
95948.4
95345.3
94986.8
94750.5
94662.5
94574.3
94566
94536
94565.3
94568.3
94660.9
94736.9
94985.9
95319.9
95948.5
89098.3
90182.1
89816.8
90520.6
90330.6
90774.6
90587.7
90865.6
90587.2
90779
90329.2
90532.2
89815.1
90207.9
89089.6
90213.1
91520.1
91415.3
92237.3
92078.5
92601.7
92373.2
92713.5
92369.5
92604.3
92067.2
92243.7
91395.5
91532.7
90176.5
87385.4
88858.4
88634.8
89614.2
89370.3
90024.3
89708
90152.8
89701
90020.4
89347.9
89603.5
88593.9
88832.7
87310.4
91796.2
92548
92305.8
92845.8
92611.2
93012.5
92748.3
93065.3
92742.6
93015.5
92592.6
92851.1
92269.4
92551.2
91732.7
93312.3
92771.6
92616.6
92403.4
92250.9
92228.3
92092.6
92179.1
92089.9
92245
92242.5
92441.3
92599.4
92843.8
93307.8
96982.3
95923.2
95700.3
95158.3
94964.2
94716.6
94619.2
94574
94626
94729.7
94986.8
95184.6
95744.7
95962.3
97083.1
93173.3
93217.3
93139.3
93098
92998
92958.3
92885.6
92899.3
92884.8
92960.2
92995.4
93099.9
93133.9
93216
93166.1
95307.5
95193.7
95094.7
94922.6
94808.8
94677.8
94620.2
94582.7
94622.8
94682.8
94816.6
94931.4
95106.4
95205
95322.3
93704.2
93678.7
93618.8
93545.2
93465.7
93397.9
93350.1
93335.3
93350.2
93398.5
93465.9
93546
93619.2
93680
93705.7
94767.4
94740.1
94685.1
94610.5
94542.7
94472.2
94436.6
94414.3
94437.4
94473.8
94544.9
94613.2
94688.3
94743.5
94771.2
93854.3
93848.6
93821.1
93790.6
93758.4
93725.2
93709.2
93697
93709.5
93725.9
93759.3
93791.8
93822.7
93850.7
93856.6
94381.7
94392.3
94390.8
94397.2
94402.3
94401.8
94409
94403.6
94409.3
94402.5
94403.4
94398.5
94392.3
94393.9
94383.2
93799.8
93827.6
93855.9
93904
93949.6
93987.7
94018.7
94023.6
94019.1
93988.6
93950.8
93905.6
93857.7
93829.5
93801.7
94116
94153.6
94202.5
94278.2
94351.6
94416.5
94463.8
94476.1
94464.2
94417.2
94352.7
94279.4
94203.8
94154.6
94116.8
93796.5
93834.3
93890.2
93972.4
94052.8
94125.3
94175.6
94191.3
94176.1
94126.3
94054.1
93974
93892
93836
93797.9
94100.7
94130
94177
94243.8
94309.6
94369.5
94409.7
94423.6
94410
94370
94310.3
94244.7
94177.9
94130.8
94101.2
93961.6
93974.2
93997.3
94028.3
94059.1
94087.1
94105.3
94112.2
94105.5
94087.5
94059.7
94029.1
93998.2
93975.2
93962.5
SCALARS density float 1
LOOKUP_TABLE default
1.21446
1.21446
1.2145
1.21454
1.21458
1.21462
1.21463
1.21465
1.21463
1.21462
1.21458
1.21454
1.21451
1.21447
1.21447
1.21343
1.21315
1.21277
1.21221
1.21166
1.21117
1.21083
1.21073
1.21083
1.21117
1.21166
1.21221
1.21277
1.21315
1.21343
1.2176
1.21713
1.21638
1.21532
1.2143
1.21336
1.21276
1.21253
1.21276
1.21337
1.2143
1.21533
1.21638
1.21713
1.2176
1.21426
1.21376
1.21288
1.21169
1.21053
1.20945
1.20878
1.2085
1.20878
1.20945
1.21053
1.21169
1.21288
1.21376
1.21426
1.21835
1.21794
1.21712
1.21605
1.21499
1.21399
1.2134
1.21312
1.2134
1.21399
1.21499
1.21605
1.21712
1.21794
1.21834
1.21219
1.212
1.21146
1.21079
1.21013
1.20945
1.20911
1.20887
1.20911
1.20945
1.21013
1.21078
1.21145
1.21199
1.21218
1.21679
1.21688
1.21678
1.21674
1.21668
1.21655
1.21656
1.21646
1.21656
1.21655
1.21668
1.21673
1.21677
1.21687
1.21677
1.20845
1.20873
1.20906
1.20949
1.21003
1.21033
1.21073
1.21068
1.21073
1.21032
1.21001
1.20947
1.20903
1.2087
1.20842
1.21568
1.2161
1.21674
1.21761
1.21855
1.21927
1.21989
1.21997
1.21989
1.21926
1.21853
1.21759
1.21672
1.21608
1.21566
1.20683
1.2068
1.20754
1.208
1.20913
1.20964
1.21047
1.21038
1.21045
1.20961
1.20909
1.20795
1.20749
1.20674
1.20677
1.2181
1.21755
1.21822
1.21853
1.21945
1.21987
1.22053
1.22048
1.22053
1.21985
1.21943
1.21848
1.21819
1.21749
1.21808
1.21644
1.20891
1.20874
1.20538
1.2056
1.20438
1.20477
1.20425
1.20474
1.20434
1.20552
1.20528
1.2086
1.20877
1.21626
1.22425
1.21981
1.21725
1.21571
1.21516
1.21456
1.21455
1.21433
1.21455
1.21451
1.21516
1.21561
1.21726
1.21954
1.22424
1.16405
1.17475
1.17104
1.17777
1.176
1.18023
1.17848
1.1811
1.17848
1.18028
1.17599
1.17788
1.17101
1.17512
1.1646
1.17548
1.18816
1.1867
1.19427
1.19263
1.19749
1.19531
1.19848
1.19527
1.19752
1.19253
1.19432
1.18651
1.1885
1.17567
1.14729
1.16167
1.15954
1.16874
1.16647
1.17264
1.16972
1.17388
1.16966
1.17261
1.16625
1.16862
1.15918
1.16167
1.14711
1.1891
1.19663
1.19467
1.19964
1.19758
1.20125
1.19889
1.20175
1.19884
1.20127
1.1974
1.19967
1.19436
1.19692
1.18945
1.20246
1.19828
1.19716
1.19499
1.19358
1.19331
1.19213
1.19287
1.19211
1.19346
1.1935
1.1953
1.19702
1.19938
1.20375
1.23401
1.22622
1.22508
1.22037
1.21867
1.21647
1.21565
1.21523
1.21571
1.21658
1.21885
1.22054
1.22551
1.22707
1.23616
1.20029
1.20155
1.20157
1.20142
1.20052
1.20017
1.19955
1.19968
1.19955
1.20019
1.20046
1.20136
1.2016
1.20207
1.20132
1.21998
1.21965
1.21949
1.2182
1.2172
1.21602
1.21553
1.21521
1.21556
1.21606
1.21722
1.21821
1.2197
1.22032
1.22118
1.20539
1.20576
1.20589
1.20554
1.20487
1.20425
1.20384
1.20372
1.20384
1.20424
1.20481
1.20548
1.20603
1.20635
1.20641
1.21517
1.21547
1.21563
1.2153
1.21476
1.21412
1.21381
1.21362
1.21382
1.21411
1.21471
1.21527
1.21582
1.2161
1.21618
1.20683
1.20728
1.20765
1.20774
1.20755
1.20725
1.20712
1.20702
1.20712
1.20723
1.20749
1.20771
1.20785
1.2079
1.20779
1.21167
1.21224
1.21282
1.21326
1.21343
1.21344
1.21351
1.21347
1.21351
1.21341
1.21337
1.21324
1.21304
1.21285
1.21261
1.20641
1.2071
1.20793
1.20876
1.20932
1.20969
1.20997
1.21002
1.20997
1.20965
1.20926
1.20876
1.20817
1.20772
1.20733
1.20924
1.20999
1.21098
1.21206
1.21289
1.2135
1.21394
1.21405
1.21393
1.21347
1.21282
1.21207
1.21123
1.21059
1.21012
1.20662
1.20735
1.2084
1.20955
1.21046
1.21115
1.21161
1.21175
1.2116
1.21111
1.2104
1.20957
1.20866
1.20797
1.2075
1.2088
1.20943
1.21036
1.21136
1.21214
1.21272
1.21308
1.2132
1.21307
1.21267
1.21208
1.21139
1.21063
1.21003
1.20964
1.2091
1.20955
1.21024
1.21088
1.21132
1.21159
1.21173
1.21177
1.21171
1.21153
1.21126
1.21091
1.21051
1.21016
1.20994
SCALARS u-velocity float 1
LOOKUP_TABLE default
99.72
99.7037
99.662
99.6127
99.5608
99.513
99.4844
99.4705
99.4845
99.5132
99.5611
99.613
99.6624
99.7042
99.7205
98.6585
98.681
98.6971
98.7306
98.7598
98.7851
98.806
98.8084
98.8059
98.7851
98.7597
98.7304
98.6969
98.6807
98.6582
99.4308
99.4857
99.566
99.6815
99.791
99.8916
99.9569
99.9805
99.9572
99.8922
99.7919
99.6826
99.5674
99.4872
99.4324
98.2982
98.3513
98.4427
98.5671
98.69
98.8026
98.8746
98.9026
98.8745
98.8026
98.6899
98.5671
98.4425
98.3511
98.2979
99.5377
99.5952
99.7002
99.8377
99.9672
100.092
100.163
100.199
100.164
100.094
99.9699
99.8412
99.7044
99.6001
99.543
98.2404
98.2524
98.3017
98.3653
98.436
98.5069
98.5466
98.57
98.5468
98.5075
98.4367
98.3663
98.3023
98.2527
98.2403
99.9392
99.9774
100.032
100.098
100.134
100.189
100.196
100.225
100.198
100.194
100.141
100.107
100.043
99.9909
99.9544
98.3134
98.2302
98.1553
98.0884
98.0345
98.0061
97.9745
97.9814
97.9759
98.0093
98.0382
98.0938
98.159
98.2319
98.3118
100.022
100.261
100.344
100.5
100.505
100.581
100.544
100.589
100.549
100.591
100.52
100.518
100.369
100.294
100.066
97.719
97.5567
97.5852
97.6733
97.7003
97.8108
97.8234
97.8887
97.8293
97.8244
97.7148
97.6979
97.6057
97.572
97.7041
98.0378
99.8527
100.118
101.223
101.615
102.065
102.19
102.298
102.199
102.081
101.646
101.258
100.164
99.9143
98.179
89.7259
94.7099
96.4693
98.2085
99.1528
100.236
100.613
100.907
100.629
100.275
99.1948
98.2819
96.5479
94.8643
89.6475
90.0332
94.2458
101.758
104.031
106.512
106.943
107.975
107.716
107.991
106.975
106.568
104.125
101.887
94.3151
90.3107
123.764
120.271
120.872
119.453
119.785
118.322
118.737
117.871
118.737
118.297
119.793
119.382
120.821
120.326
124.934
134.78
130.538
127.538
124.961
123.93
122.176
122
121.225
122.017
122.195
123.978
124.962
127.609
131
135.95
136.939
133.202
129.966
127.53
126.332
124.883
124.511
123.958
124.543
124.937
126.421
127.623
130.207
133.836
138.086
117.838
120.261
118.136
118.404
117.37
117.479
116.751
116.994
116.772
117.48
117.416
118.355
118.272
120.797
120.086
89.2724
101.655
102.613
106.261
106.533
108.648
108.269
109.219
108.236
108.578
106.387
105.972
102.325
102.252
92.1242
79.1885
90.6338
95.6274
99.1125
100.355
102.157
102.335
103.001
102.292
102.1
100.136
98.8413
95.4061
91.6919
81.6075
95.9795
98.6622
101.936
102.986
103.471
104.014
104.12
104.365
104.116
103.998
103.356
102.82
102.072
99.9369
98.5056
91.0173
93.7808
96.9498
98.5676
99.1887
99.7754
99.9669
100.196
99.9585
99.7352
99.0274
98.3771
97.1369
95.0856
93.427
95.8251
97.8918
100.494
101.785
102.236
102.455
102.589
102.677
102.593
102.422
102.1
101.651
100.808
99.2426
98.1462
93.3724
95.3437
97.813
99.2521
99.7684
99.9833
100.101
100.183
100.101
99.9314
99.612
99.1304
98.1816
96.7185
95.6404
95.5749
97.352
99.6142
101.016
101.528
101.662
101.733
101.776
101.731
101.601
101.373
100.929
100.041
98.7309
97.763
94.4059
96.0704
98.2246
99.644
100.182
100.296
100.327
100.353
100.317
100.22
100.02
99.5803
98.6978
97.4636
96.5541
95.565
97.1024
99.1256
100.514
101.058
101.142
101.133
101.135
101.116
101.054
100.895
100.478
99.6355
98.4904
97.6525
95.0871
96.5359
98.4712
99.8524
100.418
100.495
100.46
100.443
100.433
100.394
100.255
99.8412
99.016
97.929
97.1392
95.5922
96.9642
98.8239
100.206
100.809
100.904
100.861
100.832
100.826
100.792
100.648
100.219
99.3957
98.351
97.5987
95.4064
96.7274
98.5447
99.9547
100.619
100.756
100.725
100.691
100.681
100.635
100.461
99.9914
99.1424
98.1129
97.3799
95.4165
96.7009
98.4992
99.9558
100.702
100.91
100.911
100.88
100.858
100.78
100.551
100.016
99.1186
98.0809
97.3555
SCALARS v-velocity float 1
LOOKUP_TABLE default
-0.0311854
-0.0812527
-0.121611
-0.139051
-0.132745
-0.104172
-0.0568736
-0.00035868
0.0561751
0.103517
0.132166
0.138568
0.12125
0.0810281
0.0311083
-0.0546156
-0.13531
-0.212215
-0.23407
-0.229709
-0.175052
-0.0975045
-4.15826e-05
0.0974173
0.174956
0.229607
0.23397
0.212129
0.135255
0.0545898
-0.000972284
0.00959579
-0.00289959
0.0118899
-0.00104503
0.00821712
-0.000255457
-0.00070462
-0.00113189
-0.00956438
-0.000207866
-0.0129878
0.0020218
-0.0101498
0.000761622
0.070412
0.192524
0.268993
0.321185
0.2908
0.237028
0.123704
0.000452184
-0.122845
-0.236237
-0.290136
-0.320639
-0.268594
-0.192263
-0.0703338
0.140712
0.375603
0.545672
0.637321
0.592864
0.473215
0.251528
-0.000922313
-0.253311
-0.474972
-0.594499
-0.638781
-0.54691
-0.376384
-0.141047
0.222463
0.571078
0.847489
0.96748
0.913245
0.718796
0.388506
0.00236906
-0.383936
-0.71434
-0.909204
-0.963881
-0.844557
-0.569123
-0.221727
0.222913
0.581838
0.884338
1.01554
0.974267
0.766473
0.417555
-0.000192006
-0.417703
-0.766965
-0.974778
-1.01635
-0.885558
-0.582799
-0.223598
0.290342
0.675788
1.02355
1.13436
1.08734
0.84277
0.46305
0.00753924
-0.448658
-0.828383
-1.07424
-1.12244
-1.01324
-0.66846
-0.287071
0.17884
0.509103
0.809659
0.903797
0.89298
0.689566
0.387038
0.00430014
-0.37714
-0.68242
-0.886398
-0.900152
-0.809527
-0.511285
-0.18292
0.479399
0.760782
1.09402
1.17162
1.03961
0.800146
0.425044
0.0182255
-0.391526
-0.764942
-1.00817
-1.14199
-1.06807
-0.738295
-0.463162
1.14903
1.79126
2.14547
2.03352
1.80281
1.28697
0.696711
0.0216766
-0.645672
-1.24777
-1.76103
-2.0059
-2.12158
-1.78801
-1.17998
-0.330964
3.30978
2.43999
2.9749
1.94075
1.62045
0.727701
0.036477
-0.665848
-1.55074
-1.88604
-2.91589
-2.41033
-3.28881
0.368338
23.0605
19.8249
15.804
12.6949
8.84859
5.96491
2.86481
0.0677712
-2.70192
-5.82656
-8.66517
-12.5559
-15.5776
-19.6509
-22.8305
25.0595
15.9445
12.9893
8.49751
6.44337
3.70293
1.97286
0.0765223
-1.82957
-3.54694
-6.30062
-8.32585
-12.8199
-15.7447
-25.2273
11.3694
7.02043
6.63573
4.0297
3.60341
1.9077
1.16393
0.0700751
-1.07686
-1.77361
-3.5442
-3.90778
-6.63214
-6.98292
-11.6
-8.25571
-8.62934
-4.79352
-4.91991
-2.49536
-2.18727
-0.729422
0.127891
0.911901
2.44476
2.68171
5.18801
4.99801
8.91891
8.48703
-20.8785
-18.1888
-12.2275
-10.1861
-6.32863
-4.48442
-1.88765
0.157836
2.11426
4.823
6.58779
10.6032
12.6044
18.8554
21.5546
-23.3367
-18.4581
-14.5316
-10.9829
-7.95872
-5.06003
-2.46564
0.190426
2.66631
5.46364
8.16142
11.4726
14.7737
19.2248
23.9207
-2.47811
-0.51465
-2.26899
-1.36541
-1.7967
-0.94395
-0.63952
0.046268
0.667191
1.02181
1.80295
1.41634
2.24199
0.45062
2.33991
-1.89252
-2.17423
-2.64563
-2.14161
-1.98796
-1.24226
-0.684964
0.0585007
0.755052
1.34807
2.05146
2.23072
2.6848
2.13452
1.8705
-0.153652
-0.148952
-0.199894
-0.00147871
-0.151035
-0.0169773
-0.0509233
0.0126198
0.0600768
0.0378401
0.165481
0.0259932
0.202468
0.10471
0.128346
-0.0938875
-0.142792
-0.109965
0.0345425
-0.0196265
0.037485
0.00553749
0.0138753
0.0130767
-0.0123493
0.0433065
-0.010159
0.107828
0.0993315
0.070371
0.0811546
0.213256
0.394077
0.523536
0.468071
0.378014
0.194512
0.00423446
-0.188763
-0.367349
-0.452274
-0.507101
-0.397941
-0.244125
-0.0991116
0.102543
0.277977
0.489044
0.620697
0.58559
0.461251
0.244229
0.00229884
-0.240469
-0.453173
-0.57281
-0.611237
-0.500921
-0.311149
-0.12074
0.131756
0.350521
0.589485
0.715824
0.689523
0.535868
0.287925
0.00134633
-0.2846
-0.52789
-0.676376
-0.706349
-0.598495
-0.375967
-0.145858
0.115004
0.3056
0.521669
0.631426
0.619988
0.47923
0.25864
-0.000949036
-0.259234
-0.47506
-0.611573
-0.628267
-0.53589
-0.332309
-0.128871
0.0875312
0.230553
0.403083
0.485327
0.484891
0.371352
0.201901
-0.000490245
-0.2011
-0.365588
-0.475291
-0.481036
-0.414054
-0.251772
-0.098551
0.0380163
0.100733
0.202764
0.252221
0.263559
0.197488
0.106994
-0.002649
-0.11023
-0.195706
-0.258566
-0.252794
-0.216822
-0.122246
-0.04862
0.00467438
0.0150331
0.0644245
0.0910416
0.107222
0.0764255
0.0412524
-0.00215268
-0.0433331
-0.0735141
-0.101578
-0.0908077
-0.0760296
-0.0328002
-0.013383
-0.0217591
-0.0498294
-0.0409867
-0.0244949
-0.0066984
-0.00862451
-0.00660286
-0.00308324
0.00269704
0.00956638
0.00974914
0.0217476
0.027061
0.0310684
0.0128721
SCALARS Mach float 1
LOOKUP_TABLE default
30.1352
30.1253
30.0997
30.0696
30.0378
30.0085
29.991
29.9825
29.9911
30.0087
30.038
30.0698
30.1
30.1256
30.1355
29.5009
29.5158
29.5274
29.5503
29.5705
29.588
29.6021
29.604
29.6021
29.588
29.5704
29.5502
29.5273
29.5156
29.5008
29.9438
29.9792
30.0314
30.1064
30.1777
30.2432
30.2858
30.3013
30.286
30.2436
30.1783
30.1071
30.0323
29.9802
29.9448
29.2817
29.3158
29.3747
29.4549
29.534
29.6067
29.653
29.6711
29.653
29.6067
29.534
29.4549
29.3746
29.3157
29.2815
30.0045
30.0416
30.1095
30.1983
30.2818
30.3621
30.4075
30.4308
30.4081
30.3632
30.2835
30.2004
30.1121
30.0445
30.0077
29.2575
29.2665
29.2996
29.3416
29.3866
29.4313
29.4556
29.4703
29.4558
29.4317
29.3871
29.3422
29.3001
29.2667
29.2575
30.2548
30.2783
30.3133
30.3543
30.3759
30.4094
30.4119
30.4295
30.4134
30.4122
30.3802
30.3597
30.3202
30.2866
30.2641
29.3204
29.2707
29.2263
29.1852
29.1502
29.1306
29.1084
29.1121
29.1092
29.1325
29.1525
29.1884
29.2286
29.2718
29.3196
30.3086
30.4521
30.5007
30.592
30.5903
30.6324
30.6058
30.6322
30.6089
30.6382
30.5997
30.6033
30.5162
30.4726
30.3354
28.9814
28.8865
28.9008
28.9508
28.9602
29.0219
29.0239
29.0625
29.0274
29.0299
28.9688
28.9654
28.9131
28.8957
28.9728
29.0942
30.1934
30.358
31.0312
31.2659
31.5374
31.6082
31.674
31.6137
31.5474
31.2851
31.0526
30.3859
30.231
29.1786
24.4339
27.2755
28.2743
29.3201
29.866
30.5216
30.7417
30.9218
30.7512
30.5447
29.8909
29.3631
28.3205
27.3646
24.392
26.0768
28.0388
32.0835
33.2513
34.5899
34.7468
35.3368
35.1451
35.3448
34.7627
34.6164
33.3004
32.1421
28.0583
26.1959
48.711
44.8993
45.1007
43.7198
43.8818
42.7066
42.9886
42.3345
42.9872
42.6846
43.8817
43.6583
45.0491
44.9204
49.6395
55.8138
52.0406
49.6649
47.5375
46.7556
45.3775
45.2542
44.6542
45.2666
45.3902
46.7908
47.5345
49.7215
52.4109
56.8123
57.635
54.4465
51.7043
49.7136
48.7497
47.5859
47.3144
46.8609
47.3397
47.6308
48.8227
49.7953
51.906
54.9874
58.6333
43.5638
44.9578
42.888
42.9055
41.9888
41.9791
41.4288
41.5697
41.4474
41.9895
42.0329
42.896
43.0171
45.4299
45.3006
25.8312
32.4228
32.6357
34.6848
34.6945
35.9637
35.6632
36.2671
35.6444
35.9296
34.6106
34.5292
32.4795
32.883
27.4997
18.9234
24.8229
27.6675
29.7371
30.5008
31.6116
31.7263
32.141
31.6995
31.5759
30.367
29.5729
27.5378
25.4093
20.1011
27.955
29.5509
31.5642
32.2148
32.5225
32.8593
32.9272
33.0806
32.9255
32.8501
32.4504
32.1115
31.6504
30.3252
29.4587
25.0494
26.6059
28.4474
29.4157
29.7933
30.1529
30.272
30.413
30.2668
30.1283
29.6955
29.3008
28.558
27.3573
26.4043
27.8342
29.0562
30.6331
31.4325
31.7168
31.8559
31.942
31.9976
31.9448
31.8353
31.6316
31.3495
30.8262
29.8708
29.211
26.3853
27.5187
28.9732
29.8401
30.1552
30.2883
30.3614
30.4122
30.361
30.2565
30.0598
29.7661
29.1938
28.3249
27.6937
27.6834
28.7289
30.0891
30.9488
31.2657
31.3498
31.3942
31.4213
31.3924
31.3118
31.1691
30.8946
30.35
29.5558
28.9768
26.9888
27.9542
29.2298
30.0856
30.4127
30.4812
30.4996
30.5152
30.4933
30.4344
30.313
30.0466
29.5145
28.7779
28.2417
27.6809
28.5829
29.7927
30.6363
30.9684
31.0177
31.0104
31.0111
30.9995
30.963
30.8676
30.6138
30.1027
29.4132
28.9141
27.3907
28.235
29.3832
30.2148
30.5567
30.6006
30.5763
30.5655
30.56
30.5385
30.4563
30.2078
29.7121
29.063
28.596
27.6996
28.5033
29.6112
30.4464
30.8125
30.8674
30.8389
30.8203
30.817
30.7985
30.7134
30.4545
29.9579
29.3317
28.8849
27.5722
28.344
29.4231
30.2729
30.6755
30.7572
30.7361
30.7144
30.7089
30.6824
30.5787
30.2952
29.7842
29.1689
28.7346
27.6019
28.3534
29.4225
30.3022
30.7568
30.8826
30.882
30.8628
30.8495
30.8028
30.6636
30.3386
29.7969
29.1755
28.7449
