# vtk DataFile Version 3.0
Structured Grid Example
ASCII
DATASET STRUCTURED_GRID
DIMENSIONS 15 30 1
POINTS 450 FLOAT
0.0833327 0.0333334 0
0.0833313 0.1 0
0.0833301 0.166667 0
0.083329 0.233333 0
0.0833281 0.3 0
0.0833274 0.366667 0
0.083327 0.433333 0
0.0833268 0.5 0
0.083327 0.566667 0
0.0833274 0.633333 0
0.0833281 0.7 0
0.083329 0.766667 0
0.0833301 0.833333 0
0.0833313 0.9 0
0.0833327 0.966667 0
0.249998 0.0333334 0
0.249993 0.1 0
0.249989 0.166667 0
0.249986 0.233334 0
0.249983 0.3 0
0.24998 0.366667 0
0.249979 0.433333 0
0.249979 0.5 0
0.249979 0.566667 0
0.24998 0.633333 0
0.249983 0.7 0
0.249986 0.766666 0
0.249989 0.833333 0
0.249993 0.9 0
0.249998 0.966667 0
0.416662 0.0333336 0
0.416654 0.100001 0
0.416646 0.166668 0
0.416639 0.233334 0
0.416633 0.300001 0
0.416628 0.366667 0
0.416626 0.433334 0
0.416625 0.5 0
0.416626 0.566666 0
0.416628 0.633333 0
0.416633 0.699999 0
0.416639 0.766666 0
0.416646 0.833332 0
0.416654 0.899999 0
0.416662 0.966666 0
0.583326 0.033334 0
0.58331 0.100002 0
0.583296 0.166669 0
0.583284 0.233336 0
0.583273 0.300003 0
0.583266 0.366669 0
0.583261 0.433335 0
0.583259 0.5 0
0.583261 0.566665 0
0.583266 0.633331 0
0.583273 0.699997 0
0.583284 0.766664 0
0.583296 0.833331 0
0.58331 0.899998 0
0.583326 0.966666 0
0.749987 0.0333351 0
0.749961 0.100005 0
0.749937 0.166674 0
0.749915 0.233342 0
0.749898 0.300008 0
0.749884 0.366673 0
0.749876 0.433337 0
0.749874 0.5 0
0.749876 0.566663 0
0.749884 0.633327 0
0.749898 0.699992 0
0.749915 0.766658 0
0.749937 0.833326 0
0.749961 0.899995 0
0.749987 0.966665 0
0.916644 0.033338 0
0.916601 0.100013 0
0.91656 0.166686 0
0.916524 0.233356 0
0.916494 0.300021 0
0.916472 0.366683 0
0.916458 0.433342 0
0.916454 0.5 0
0.916458 0.566658 0
0.916472 0.633317 0
0.916494 0.699979 0
0.916524 0.766644 0
0.91656 0.833314 0
0.916601 0.899987 0
0.916644 0.966662 0
1.0833 0.0333461 0
1.08322 0.100036 0
1.08315 0.166719 0
1.08309 0.233394 0
1.08304 0.300058 0
1.08301 0.366712 0
1.08298 0.433358 0
1.08298 0.5 0
1.08298 0.566642 0
1.08301 0.633288 0
1.08304 0.699942 0
1.08309 0.766606 0
1.08315 0.833281 0
1.08322 0.899964 0
1.0833 0.966654 0
1.24994 0.0333682 0
1.24981 0.100098 0
1.2497 0.16681 0
1.24959 0.233497 0
1.24951 0.300156 0
1.24945 0.366788 0
1.24942 0.433399 0
1.2494 0.5 0
1.24942 0.566601 0
1.24945 0.633212 0
1.24951 0.699844 0
1.24959 0.766503 0
1.2497 0.83319 0
1.24981 0.899902 0
1.24994 0.966632 0
1.41656 0.0334298 0
1.41634 0.10027 0
1.41615 0.16706 0
1.41598 0.233778 0
1.41585 0.300419 0
1.41575 0.36699 0
1.41569 0.433509 0
1.41567 0.5 0
1.41569 0.566491 0
1.41575 0.63301 0
1.41585 0.699581 0
1.41598 0.766222 0
1.41615 0.83294 0
1.41634 0.89973 0
1.41656 0.96657 0
1.58313 0.0336075 0
1.58275 0.10076 0
1.58242 0.167751 0
1.58215 0.234537 0
1.58195 0.301115 0
1.58181 0.367517 0
1.58173 0.433791 0
1.58171 0.5 0
1.58173 0.566209 0
1.58181 0.632483 0
1.58195 0.698885 0
1.58215 0.765463 0
1.58242 0.832249 0
1.58275 0.89924 0
1.58313 0.966392 0
1.74959 0.0341677 0
1.74885 0.102235 0
1.74829 0.169714 0
1.74791 0.236575 0
1.74766 0.302905 0
1.74751 0.368829 0
1.74744 0.434482 0
1.74741 0.5 0
1.74744 0.565518 0
1.74751 0.631171 0
1.74766 0.697095 0
1.74791 0.763425 0
1.74829 0.830286 0
1.74885 0.897765 0
1.74959 0.965832 0
1.91555 0.0363295 0
1.91388 0.107253 0
1.91312 0.175401 0
1.91283 0.241837 0
1.91276 0.307169 0
1.91277 0.371793 0
1.9128 0.435995 0
1.91281 0.5 0
1.9128 0.564005 0
1.91277 0.628207 0
1.91276 0.692831 0
1.91283 0.758163 0
1.91312 0.824599 0
1.91388 0.892747 0
1.91555 0.963671 0
2.07838 0.0591504 0
2.07417 0.125973 0
2.07554 0.190391 0
2.07663 0.253364 0
2.07743 0.315525 0
2.07798 0.377223 0
2.07829 0.438667 0
2.0784 0.5 0
2.07829 0.561333 0
2.07798 0.622777 0
2.07743 0.684475 0
2.07663 0.746636 0
2.07554 0.809609 0
2.07417 0.874027 0
2.07838 0.94085 0
2.24384 0.096456 0
2.23911 0.153168 0
2.24152 0.210396 0
2.24318 0.267878 0
2.24431 0.325632 0
2.24503 0.383617 0
2.24544 0.441767 0
2.24557 0.5 0
2.24544 0.558233 0
2.24503 0.616383 0
2.24431 0.674368 0
2.24318 0.732122 0
2.24152 0.789604 0
2.23911 0.846832 0
2.24384 0.903544 0
2.41462 0.118677 0
2.41292 0.170231 0
2.41356 0.223198 0
2.41406 0.277268 0
2.41444 0.332207 0
2.4147 0.387788 0
2.41485 0.44379 0
2.4149 0.5 0
2.41485 0.55621 0
2.4147 0.612212 0
2.41444 0.667793 0
2.41406 0.722732 0
2.41356 0.776802 0
2.41292 0.829769 0
2.41462 0.881323 0
2.58538 0.118677 0
2.58708 0.170231 0
2.58644 0.223198 0
2.58594 0.277268 0
2.58556 0.332207 0
2.5853 0.387788 0
2.58515 0.44379 0
2.5851 0.5 0
2.58515 0.55621 0
2.5853 0.612212 0
2.58556 0.667793 0
2.58594 0.722732 0
2.58644 0.776802 0
2.58708 0.829769 0
2.58538 0.881323 0
2.75616 0.096456 0
2.76089 0.153168 0
2.75848 0.210396 0
2.75682 0.267878 0
2.75569 0.325632 0
2.75497 0.383617 0
2.75456 0.441767 0
2.75443 0.5 0
2.75456 0.558233 0
2.75497 0.616383 0
2.75569 0.674368 0
2.75682 0.732122 0
2.75848 0.789604 0
2.76089 0.846832 0
2.75616 0.903544 0
2.92162 0.0591504 0
2.92583 0.125973 0
2.92446 0.190391 0
2.92337 0.253364 0
2.92257 0.315525 0
2.92202 0.377223 0
2.92171 0.438667 0
2.9216 0.5 0
2.92171 0.561333 0
2.92202 0.622777 0
2.92257 0.684475 0
2.92337 0.746636 0
2.92446 0.809609 0
2.92583 0.874027 0
2.92162 0.94085 0
3.08445 0.0363295 0
3.08612 0.107253 0
3.08688 0.175401 0
3.08717 0.241837 0
3.08724 0.307169 0
3.08723 0.371793 0
3.0872 0.435995 0
3.08719 0.5 0
3.0872 0.564005 0
3.08723 0.628207 0
3.08724 0.692831 0
3.08717 0.758163 0
3.08688 0.824599 0
3.08612 0.892747 0
3.08445 0.963671 0
3.25041 0.0341677 0
3.25115 0.102235 0
3.25171 0.169714 0
3.25209 0.236575 0
3.25234 0.302905 0
3.25249 0.368829 0
3.25256 0.434482 0
3.25259 0.5 0
3.25256 0.565518 0
3.25249 0.631171 0
3.25234 0.697095 0
3.25209 0.763425 0
3.25171 0.830286 0
3.25115 0.897765 0
3.25041 0.965832 0
3.41687 0.0336075 0
3.41725 0.10076 0
3.41758 0.167751 0
3.41785 0.234537 0
3.41805 0.301115 0
3.41819 0.367517 0
3.41827 0.433791 0
3.41829 0.5 0
3.41827 0.566209 0
3.41819 0.632483 0
3.41805 0.698885 0
3.41785 0.765463 0
3.41758 0.832249 0
3.41725 0.89924 0
3.41687 0.966392 0
3.58344 0.0334298 0
3.58366 0.10027 0
3.58385 0.16706 0
3.58402 0.233778 0
3.58415 0.300419 0
3.58425 0.36699 0
3.58431 0.433509 0
3.58433 0.5 0
3.58431 0.566491 0
3.58425 0.63301 0
3.58415 0.699581 0
3.58402 0.766222 0
3.58385 0.83294 0
3.58366 0.89973 0
3.58344 0.96657 0
3.75006 0.0333682 0
3.75019 0.100098 0
3.7503 0.16681 0
3.75041 0.233497 0
3.75049 0.300156 0
3.75055 0.366788 0
3.75058 0.433399 0
3.7506 0.5 0
3.75058 0.566601 0
3.75055 0.633212 0
3.75049 0.699844 0
3.75041 0.766503 0
3.7503 0.83319 0
3.75019 0.899902 0
3.75006 0.966632 0
3.9167 0.0333461 0
3.91678 0.100036 0
3.91685 0.166719 0
3.91691 0.233394 0
3.91696 0.300058 0
3.91699 0.366712 0
3.91702 0.433358 0
3.91702 0.5 0
3.91702 0.566642 0
3.91699 0.633288 0
3.91696 0.699942 0
3.91691 0.766606 0
3.91685 0.833281 0
3.91678 0.899964 0
3.9167 0.966654 0
4.08336 0.033338 0
4.0834 0.100013 0
4.08344 0.166686 0
4.08348 0.233356 0
4.08351 0.300021 0
4.08353 0.366683 0
4.08354 0.433342 0
4.08355 0.5 0
4.08354 0.566658 0
4.08353 0.633317 0
4.08351 0.699979 0
4.08348 0.766644 0
4.08344 0.833314 0
4.0834 0.899987 0
4.08336 0.966662 0
4.25001 0.0333351 0
4.25004 0.100005 0
4.25006 0.166674 0
4.25008 0.233342 0
4.2501 0.300008 0
4.25012 0.366673 0
4.25012 0.433337 0
4.25013 0.5 0
4.25012 0.566663 0
4.25012 0.633327 0
4.2501 0.699992 0
4.25008 0.766658 0
4.25006 0.833326 0
4.25004 0.899995 0
4.25001 0.966665 0
4.41667 0.033334 0
4.41669 0.100002 0
4.4167 0.166669 0
4.41672 0.233336 0
4.41673 0.300003 0
4.41673 0.366669 0
4.41674 0.433335 0
4.41674 0.5 0
4.41674 0.566665 0
4.41673 0.633331 0
4.41673 0.699997 0
4.41672 0.766664 0
4.4167 0.833331 0
4.41669 0.899998 0
4.41667 0.966666 0
4.58334 0.0333336 0
4.58335 0.100001 0
4.58335 0.166668 0
4.58336 0.233334 0
4.58337 0.300001 0
4.58337 0.366667 0
4.58337 0.433334 0
4.58338 0.5 0
4.58337 0.566666 0
4.58337 0.633333 0
4.58337 0.699999 0
4.58336 0.766666 0
4.58335 0.833332 0
4.58335 0.899999 0
4.58334 0.966666 0
4.75 0.0333334 0
4.75001 0.1 0
4.75001 0.166667 0
4.75001 0.233334 0
4.75002 0.3 0
4.75002 0.366667 0
4.75002 0.433333 0
4.75002 0.5 0
4.75002 0.566667 0
4.75002 0.633333 0
4.75002 0.7 0
4.75001 0.766666 0
4.75001 0.833333 0
4.75001 0.9 0
4.75 0.966667 0
4.91667 0.0333334 0
4.91667 0.1 0
4.91667 0.166667 0
4.91667 0.233333 0
4.91667 0.3 0
4.91667 0.366667 0
4.91667 0.433333 0
4.91667 0.5 0
4.91667 0.566667 0
4.91667 0.633333 0
4.91667 0.7 0
4.91667 0.766667 0
4.91667 0.833333 0
4.91667 0.9 0
4.91667 0.966667 0
POINT_DATA 450
SCALARS pressure float 1
LOOKUP_TABLE default
94473
94473
94472.9
94472.9
94472.8
94472.7
94472.6
94472.6
94472.6
94472.7
94472.7
94472.8
94472.9
94473
94473
94206.2
94206.2
94206.2
94206.1
94206.2
94206.1
94206.2
94206.1
94206.2
94206
94206.2
94206
94206.1
94206.1
94206.1
94534.5
94534.6
94534.8
94535
94535.2
94535.4
94535.6
94535.6
94535.5
94535.4
94535.2
94535
94534.7
94534.6
94534.5
94136.1
94136
94136.4
94136.3
94136.9
94136.6
94137.3
94136.7
94137.2
94136.5
94136.8
94136.1
94136.2
94135.8
94135.8
94612.1
94612.2
94612.5
94612.7
94613
94613.1
94613.5
94613.3
94613.4
94613.1
94613
94612.6
94612.4
94612.1
94612
94049.6
94048.6
94049.3
94047
94048.3
94045.7
94047.5
94045
94047.4
94045.4
94047.9
94046.5
94048.7
94047.9
94049
94717
94716
94715.7
94713.6
94713.3
94711.1
94711.6
94710.1
94711.5
94711
94713.1
94713.3
94715.4
94715.6
94716.7
93949.4
93941.7
93941.9
93927.8
93929.3
93915.4
93920.4
93910.3
93920
93914.6
93928.1
93926.4
93940.2
93939.9
93947.5
94880.2
94868.4
94863.5
94845.8
94840.7
94825.6
94825.8
94817.5
94825.6
94824.9
94840.1
94844.7
94862.6
94867.1
94879
93907.4
93841.3
93835.4
93754.8
93750.4
93689.2
93699.2
93664.9
93698.1
93687.4
93747.3
93751.2
93830.7
93836.2
93901.9
95282.1
95140.5
95102
94990.8
94958.1
94887
94882.3
94850.2
94881.8
94884.9
94956.9
94986.8
95100.1
95135.5
95279.5
94574.4
93813.5
93771
93352.7
93301.4
93102.1
93094.9
93023.2
93092.6
93098.6
93294.1
93344.8
93758.2
93799.2
94555.8
96102.3
95460.6
95051.1
94756
94613.8
94479.9
94442
94402
94441.5
94474.2
94612.6
94742.8
95050.9
95435.8
96103.1
89135.3
90212.9
89828.2
90519
90314.4
90746.6
90553.7
90827.4
90553.4
90751.3
90313.6
90531.2
89827.2
90239.5
89127.2
90210
91519.4
91410
92232.1
92070.5
92592
92363.2
92702.1
92359.8
92595
92059.8
92239.3
91391
91533
90174.2
87372.1
88849.6
88627.9
89612.5
89372.4
90029.5
89716.7
90161
89709.9
90026
89350.6
89602.5
88587.6
88824.6
87297.6
91766.7
92526.9
92295.4
92847.9
92625.7
93036.3
92780
93098.1
92774.4
93039.5
92607.2
92853.5
92259.1
92530.3
91703.2
93241.7
92723.9
92592.7
92411.5
92287.6
92288.9
92170.2
92260.9
92167.4
92305.7
92278.9
92449.5
92574.9
92795.9
93236.5
96861.8
95830.5
95649.7
95164.2
95023.2
94822.6
94755.6
94721.1
94762.2
94835.3
95045.1
95189.9
95693.3
95868.8
96961.6
93012.7
93087.3
93062.3
93091.9
93061.4
93083.9
93051.4
93080
93050.4
93085.3
93058.1
93093
93055.9
93084.9
93004
95121.5
95039.8
94999.9
94906.7
94870.6
94811
94798.2
94778.8
94800.5
94815.5
94877.6
94914.6
95010.3
95049.7
95134.4
93517.7
93521.5
93520.1
93523.5
93520.3
93524.2
93519.6
93524.3
93519.5
93524.3
93519.8
93523.4
93519.3
93521.2
93517.4
94619.5
94612.6
94606
94592.6
94586.1
94575
94573.1
94568.6
94573.7
94576
94587.6
94594.3
94607.9
94614.4
94621.3
93781.5
93781.8
93782.1
93782.4
93782.5
93782.9
93782.8
93783.2
93782.8
93783.1
93782.7
93782.7
93782.4
93782.3
93782.1
94407.7
94406.8
94405.8
94403.9
94402.9
94401.1
94401
94400.1
94401
94401.3
94403.1
94404.1
94406
94406.9
94407.7
93923.6
93923.7
93923.9
93924
93924.2
93924.1
93924.3
93924.3
93924.4
93924.3
93924.4
93924.3
93924.3
93924.2
93924.2
94304.4
94304.1
94303.8
94303.3
94303
94302.6
94302.5
94302.2
94302.5
94302.5
94303
94303.2
94303.7
94303.9
94304.1
93995.5
93995.5
93995.5
93995.4
93995.4
93995.3
93995.3
93995.3
93995.4
93995.5
93995.6
93995.7
93995.9
93995.9
93996
94256.3
94256.2
94256
94255.7
94255.5
94255.3
94255.1
94255
94255.1
94255.2
94255.4
94255.6
94255.9
94256
94256.1
94024.9
94025.1
94025.3
94025.4
94025.5
94025.5
94025.6
94025.6
94025.7
94025.7
94025.8
94025.8
94025.8
94025.7
94025.6
SCALARS density float 1
LOOKUP_TABLE default
1.21459
1.21459
1.21459
1.21459
1.21459
1.21459
1.21459
1.21459
1.21459
1.21459
1.21459
1.21459
1.21459
1.21459
1.21459
1.21212
1.21212
1.21212
1.21212
1.21213
1.21213
1.21213
1.21213
1.21213
1.21213
1.21213
1.21213
1.21212
1.21212
1.21212
1.21514
1.21514
1.21514
1.21515
1.21515
1.21515
1.21515
1.21515
1.21515
1.21515
1.21515
1.21515
1.21514
1.21514
1.21514
1.21148
1.21148
1.21149
1.21149
1.21149
1.21149
1.2115
1.21149
1.2115
1.21149
1.21149
1.21149
1.21149
1.21148
1.21148
1.21585
1.21585
1.21586
1.21586
1.21586
1.21586
1.21587
1.21587
1.21587
1.21586
1.21586
1.21586
1.21586
1.21585
1.21585
1.2107
1.21069
1.2107
1.21068
1.21069
1.21067
1.21069
1.21067
1.21069
1.21067
1.21069
1.21068
1.21069
1.21069
1.21069
1.2168
1.21679
1.21679
1.21677
1.21677
1.21675
1.21675
1.21674
1.21675
1.21675
1.21677
1.21677
1.21679
1.21679
1.2168
1.20983
1.20977
1.20977
1.20964
1.20966
1.20954
1.20958
1.20949
1.20958
1.20953
1.20965
1.20963
1.20976
1.20975
1.20982
1.21817
1.21807
1.21804
1.21789
1.21785
1.21772
1.21772
1.21764
1.21772
1.21771
1.21785
1.21788
1.21803
1.21806
1.21816
1.20981
1.2092
1.2091
1.20832
1.20826
1.20769
1.20777
1.20746
1.20776
1.20767
1.20823
1.20829
1.20905
1.20915
1.20976
1.22088
1.2198
1.21963
1.21877
1.21856
1.21795
1.21793
1.21765
1.21793
1.21794
1.21855
1.21874
1.21962
1.21976
1.22087
1.2187
1.21074
1.20984
1.20555
1.20486
1.20284
1.20271
1.202
1.20269
1.2028
1.20479
1.20546
1.20971
1.2106
1.21853
1.22569
1.22089
1.21786
1.21579
1.21475
1.21373
1.21345
1.21313
1.21345
1.21368
1.21475
1.21569
1.21788
1.22063
1.22569
1.16443
1.17507
1.17118
1.17779
1.17588
1.18
1.17819
1.18078
1.17819
1.18005
1.17588
1.1779
1.17116
1.17545
1.165
1.17547
1.18818
1.18667
1.19424
1.19259
1.19743
1.19524
1.1984
1.19521
1.19746
1.19249
1.1943
1.1865
1.18853
1.17568
1.14719
1.16161
1.1595
1.16875
1.16651
1.17271
1.16983
1.17398
1.16977
1.17268
1.1663
1.16863
1.15914
1.16162
1.14701
1.18884
1.19645
1.19459
1.19968
1.19773
1.20148
1.19919
1.20207
1.19914
1.20151
1.19755
1.19971
1.19428
1.19673
1.18919
1.20182
1.19785
1.19694
1.19507
1.19393
1.19387
1.19285
1.19363
1.19283
1.19403
1.19385
1.19538
1.1968
1.19895
1.2031
1.2329
1.22537
1.22461
1.22043
1.21921
1.21744
1.2169
1.21659
1.21697
1.21756
1.21938
1.22059
1.22504
1.22621
1.23505
1.19883
1.20036
1.20087
1.20136
1.20111
1.20133
1.20108
1.20135
1.20108
1.20134
1.20104
1.2013
1.20088
1.20086
1.19984
1.21829
1.21825
1.21863
1.21807
1.21778
1.21726
1.21718
1.21702
1.21721
1.21729
1.21779
1.21807
1.21883
1.21891
1.21947
1.20372
1.20435
1.20501
1.20537
1.20539
1.20544
1.20543
1.20548
1.20543
1.20542
1.20533
1.2053
1.20514
1.20493
1.20472
1.21388
1.21437
1.21496
1.21519
1.21521
1.21511
1.21511
1.21509
1.21512
1.2151
1.21515
1.21515
1.21514
1.21498
1.21487
1.20625
1.20675
1.20737
1.20775
1.20785
1.20786
1.20787
1.20788
1.20787
1.20783
1.20778
1.20771
1.20756
1.20736
1.2072
1.21201
1.21247
1.21306
1.21342
1.21353
1.21353
1.21353
1.21353
1.21353
1.21349
1.21346
1.21339
1.21326
1.21308
1.21294
1.20765
1.20809
1.20866
1.20905
1.20919
1.20921
1.20921
1.20921
1.2092
1.20917
1.20912
1.20903
1.20889
1.20869
1.20856
1.21106
1.21147
1.21201
1.2124
1.21255
1.21256
1.21256
1.21256
1.21255
1.21252
1.21247
1.21239
1.21224
1.21206
1.21194
1.20852
1.20891
1.20945
1.20985
1.21002
1.21005
1.21004
1.21004
1.21003
1.21
1.20995
1.20986
1.2097
1.20952
1.2094
1.21028
1.21064
1.21115
1.21154
1.21172
1.21175
1.21174
1.21173
1.21172
1.2117
1.21165
1.21156
1.21141
1.21124
1.21112
1.20965
1.21001
1.21051
1.2109
1.2111
1.21114
1.21113
1.21112
1.21111
1.21108
1.21103
1.21093
1.21078
1.21061
1.21049
SCALARS u-velocity float 1
LOOKUP_TABLE default
99.5962
99.597
99.598
99.5997
99.6007
99.6022
99.6026
99.6033
99.6029
99.6028
99.6016
99.6008
99.5993
99.5984
99.5976
98.7378
98.7376
98.7374
98.7373
98.7373
98.7374
98.7375
98.7376
98.7377
98.7377
98.7377
98.7378
98.738
98.7382
98.7384
99.6995
99.7015
99.7036
99.7072
99.7089
99.7119
99.7121
99.7138
99.7126
99.7128
99.7102
99.7089
99.7057
99.7037
99.7019
98.6098
98.6074
98.6042
98.6011
98.599
98.5976
98.5969
98.5967
98.597
98.5978
98.5993
98.6015
98.6046
98.6078
98.6101
99.8419
99.8506
99.8595
99.8735
99.8795
99.8903
99.8909
99.8968
99.8919
99.8922
99.8824
99.8771
99.8639
99.8556
99.8474
98.4294
98.4187
98.4051
98.3954
98.3895
98.388
98.3863
98.3874
98.3865
98.3886
98.3902
98.3963
98.4056
98.4188
98.4291
99.9698
100.016
100.057
100.118
100.143
100.187
100.191
100.212
100.193
100.191
100.15
100.126
100.068
100.029
99.9843
98.1793
98.1315
98.0935
98.0887
98.0917
98.1135
98.119
98.134
98.1203
98.1163
98.0949
98.0934
98.0964
98.1323
98.1767
99.7854
100.076
100.231
100.494
100.601
100.772
100.798
100.864
100.803
100.781
100.616
100.511
100.255
100.108
99.8282
97.4456
97.3366
97.4527
97.6625
97.8103
98.0323
98.1168
98.2098
98.1223
98.0452
97.8237
97.6858
97.4718
97.3504
97.4291
97.8093
99.6646
100.014
101.225
101.724
102.273
102.459
102.594
102.468
102.289
101.754
101.259
100.058
99.7243
97.949
89.606
94.6042
96.4235
98.2278
99.247
100.395
100.811
101.123
100.827
100.433
99.2882
98.3003
96.5009
94.7575
89.5273
90.0019
94.206
101.737
104.029
106.533
106.987
108.03
107.779
108.047
107.018
106.589
104.122
101.865
94.2752
90.2826
123.812
120.3
120.883
119.447
119.759
118.284
118.685
117.82
118.685
118.259
119.765
119.375
120.831
120.353
124.985
134.83
130.577
127.565
124.975
123.931
122.167
121.981
121.206
121.998
122.185
123.977
124.975
127.636
131.038
136
136.999
133.26
130.023
127.581
126.38
124.925
124.551
123.997
124.582
124.979
126.468
127.674
130.263
133.893
138.146
117.888
120.316
118.2
118.468
117.438
117.546
116.818
117.061
116.839
117.547
117.483
118.419
118.336
120.852
120.137
89.3301
101.722
102.68
106.318
106.581
108.686
108.301
109.249
108.267
108.616
106.435
106.029
102.394
102.32
92.1828
79.292
90.7299
95.7015
99.1549
100.366
102.138
102.298
102.956
102.255
102.081
100.147
98.8838
95.481
91.7897
81.7112
96.14
98.7949
102.031
103.027
103.461
103.956
104.03
104.265
104.027
103.94
103.345
102.862
102.168
100.071
98.667
91.1814
93.9156
97.0403
98.5969
99.1578
99.6877
99.8432
100.058
99.8347
99.6474
98.9963
98.4068
97.2286
95.222
93.5922
95.9998
98.0359
100.586
101.807
102.191
102.346
102.44
102.511
102.444
102.313
102.055
101.675
100.901
99.3885
98.3221
93.5194
95.4688
97.8926
99.2754
99.7339
99.8946
99.9795
100.046
99.9788
99.8427
99.5777
99.1543
98.2625
96.8453
95.7889
95.6717
97.4409
99.6747
101.046
101.523
101.625
101.677
101.71
101.675
101.564
101.368
100.959
100.103
98.8214
97.8616
94.4243
96.0994
98.2538
99.6804
100.222
100.338
100.374
100.398
100.364
100.262
100.06
99.6174
98.7277
97.4939
96.5744
95.4953
97.0604
99.1152
100.551
101.139
101.262
101.283
101.292
101.265
101.175
100.977
100.515
99.6254
98.4494
97.5846
94.9397
96.4264
98.4179
99.8754
100.515
100.66
100.671
100.67
100.645
100.56
100.353
99.8646
98.9628
97.8202
96.9936
95.4287
96.8362
98.7569
100.217
100.898
101.064
101.069
101.058
101.034
100.954
100.738
100.231
99.3285
98.2233
97.4366
95.289
96.6322
98.4968
99.9621
100.682
100.872
100.873
100.854
100.829
100.751
100.525
99.9985
99.0938
98.0175
97.2631
95.4189
96.7028
98.5115
99.9732
100.725
100.939
100.942
100.916
100.889
100.81
100.573
100.032
99.1294
98.0818
97.3576
SCALARS v-velocity float 1
LOOKUP_TABLE default
-0.00031709
-0.000586994
-0.000986561
-0.000946648
-0.000977758
-0.000721427
-0.000516818
-0.000213916
9.88939e-05
0.000327685
0.000626053
0.000651419
0.000761944
0.000446994
0.000268479
0.000963254
0.00198338
0.00324633
0.00336167
0.00339815
0.0025844
0.00165791
0.00041301
-0.000850872
-0.00182562
-0.00272159
-0.0027953
-0.00281643
-0.00171574
-0.000870488
-0.000548001
-0.0012061
-0.00165677
-0.00153342
-0.00131004
-0.00088921
-0.000515617
-0.000116955
0.000291262
0.000665436
0.00110153
0.00134274
0.00149629
0.00110179
0.000506224
0.00339555
0.0063394
0.010522
0.0102563
0.0103975
0.0076265
0.00496567
0.00127956
-0.00247037
-0.00526688
-0.00828439
-0.00846795
-0.00914301
-0.00547305
-0.00308792
-0.00260011
-0.00625922
-0.00782789
-0.00741363
-0.00586871
-0.0040704
-0.00196416
-4.55586e-06
0.00198783
0.0040138
0.00577395
0.00723548
0.00758352
0.00607451
0.0024921
0.0144453
0.0261106
0.0411872
0.0393566
0.0384934
0.0279021
0.017164
0.00336221
-0.0106419
-0.0216516
-0.0328606
-0.0344821
-0.0372864
-0.0235934
-0.0134951
-0.00652436
-0.0122743
-0.00841347
-0.00415822
0.00180433
0.0028222
0.0033885
0.000744979
-0.00170434
-0.00168448
-0.000922878
0.00440026
0.00795155
0.0117222
0.0059933
0.0727076
0.117567
0.172463
0.168613
0.155967
0.114978
0.0649554
0.00823435
-0.0492055
-0.0994244
-0.141901
-0.156018
-0.161687
-0.110001
-0.0693403
0.0144176
0.0927569
0.16411
0.179909
0.18614
0.142439
0.0847426
0.00476923
-0.0739008
-0.134546
-0.178955
-0.175896
-0.163736
-0.0948379
-0.0184558
0.376342
0.507513
0.691041
0.729853
0.600594
0.466777
0.237873
0.0182547
-0.204329
-0.431592
-0.569236
-0.700352
-0.665202
-0.485104
-0.36007
1.11392
1.71885
2.01888
1.91196
1.67401
1.19866
0.643653
0.0211793
-0.593475
-1.16042
-1.63302
-1.88511
-1.9955
-1.71582
-1.14485
-0.31482
3.35713
2.5059
3.06783
2.02293
1.69515
0.764378
0.0353729
-0.704765
-1.62741
-1.96998
-3.01003
-2.47695
-3.3361
0.35261
23.1012
19.9513
15.9933
12.9213
9.06164
6.13648
2.95623
0.0665353
-2.79554
-6.00051
-8.88015
-12.7843
-15.7683
-19.7785
-22.8724
25.1272
16.065
13.1678
8.6914
6.62483
3.84381
2.04771
0.0752257
-1.90667
-3.69032
-6.4842
-8.52192
-13.0003
-15.8667
-25.2966
11.4079
7.10034
6.75498
4.15989
3.72819
2.00354
1.21569
0.0685351
-1.13141
-1.87232
-3.67149
-4.0402
-6.75333
-7.06415
-11.6398
-8.23277
-8.56805
-4.69659
-4.81215
-2.38961
-2.10648
-0.685293
0.126016
0.864407
2.36054
2.57309
5.07775
4.89917
8.85635
8.46343
-20.8598
-18.1307
-12.1366
-10.0835
-6.22852
-4.40785
-1.846
0.155793
2.06884
4.74275
6.48451
10.4981
12.5115
18.7961
21.5352
-23.3204
-18.4075
-14.4339
-10.8745
-7.84708
-4.97615
-2.41871
0.188188
2.61519
5.3759
8.04636
11.362
14.6738
19.1738
23.9032
-2.46982
-0.485851
-2.21331
-1.30688
-1.73228
-0.898433
-0.612686
0.0442077
0.636336
0.972621
1.73523
1.35529
2.18399
0.42041
2.3307
-1.91047
-2.21701
-2.69682
-2.20366
-2.037
-1.28493
-0.705727
0.0564681
0.771932
1.38705
2.09724
2.29008
2.73364
2.17567
1.88787
-0.198671
-0.271322
-0.371382
-0.205346
-0.335581
-0.167603
-0.130206
0.0105713
0.135371
0.184703
0.346633
0.227021
0.371614
0.225614
0.172798
-0.177245
-0.366242
-0.433417
-0.343407
-0.370182
-0.2433
-0.144489
0.0118395
0.159143
0.264713
0.390522
0.365044
0.429222
0.321764
0.153362
-0.039586
-0.106778
-0.0781451
-0.0239368
-0.0471624
-0.0313578
-0.0262615
0.00219233
0.0280333
0.0383381
0.059696
0.0378538
0.0726814
0.0754689
0.0215556
-0.0456092
-0.110696
-0.0921368
-0.0486595
-0.0505774
-0.0412892
-0.02858
0.000334985
0.0285211
0.0458976
0.060352
0.0559907
0.0792219
0.0776302
0.0275977
-0.0266958
-0.060862
-0.0332543
0.00288184
0.00554979
-0.00185658
-0.00587176
-0.00038778
0.00582623
0.00683879
0.00507608
0.00498993
0.0237484
0.0358954
0.0129371
-0.0282554
-0.0616511
-0.0413809
-0.00821904
0.000530719
-0.00487555
-0.00768843
-0.00229785
0.00446017
0.00674654
0.00598053
0.0102703
0.02697
0.035457
0.0147201
-0.0219458
-0.0457196
-0.0267202
0.00278281
0.0124382
0.00549549
-0.0011231
-0.00131557
0.000286166
-0.00113771
-0.00400831
0.00083233
0.0155906
0.0246982
0.0110741
-0.0219095
-0.0462557
-0.0318493
-0.0045365
0.00738414
0.00310595
-0.00258757
-0.00280526
-0.00101107
-0.00161112
-0.00267952
0.00374465
0.0175709
0.0245204
0.0112221
-0.0182667
-0.0380894
-0.0253538
-0.000663448
0.0113014
0.00760416
0.000750553
-0.00192107
-0.00243986
-0.0043164
-0.00541141
0.000911097
0.0133883
0.0197328
0.00927867
-0.0187076
-0.0398616
-0.0294009
-0.00549212
0.00785882
0.00605548
-2.44092e-05
-0.00273738
-0.00323575
-0.00448631
-0.0042789
0.00297484
0.0152063
0.0204824
0.00951194
SCALARS Mach float 1
LOOKUP_TABLE default
30.0595
30.06
30.0607
30.0617
30.0623
30.0632
30.0635
30.0639
30.0636
30.0636
30.0628
30.0623
30.0614
30.0609
30.0604
29.5554
29.5552
29.5552
29.5551
29.5551
29.5552
29.5553
29.5553
29.5554
29.5554
29.5554
29.5554
29.5555
29.5556
29.5558
30.119
30.1201
30.1214
30.1236
30.1246
30.1264
30.1266
30.1276
30.1269
30.127
30.1254
30.1246
30.1227
30.1215
30.1204
29.4819
29.4806
29.4786
29.4768
29.4755
29.4747
29.4742
29.4742
29.4743
29.4749
29.4757
29.4771
29.4789
29.4808
29.4821
30.2015
30.2068
30.2121
30.2206
30.2243
30.2308
30.2312
30.2347
30.2318
30.2319
30.226
30.2228
30.2148
30.2098
30.2048
29.3782
29.3719
29.3637
29.3581
29.3545
29.3538
29.3527
29.3535
29.3528
29.3541
29.355
29.3587
29.3641
29.372
29.3781
30.274
30.3022
30.327
30.3641
30.3794
30.4059
30.4084
30.4211
30.4098
30.4086
30.3834
30.3691
30.3335
30.3099
30.2828
29.2342
29.2062
29.1837
29.1815
29.1832
29.1968
29.1999
29.2092
29.2006
29.1985
29.1851
29.1843
29.1855
29.2068
29.2328
30.1534
30.3296
30.4244
30.5852
30.6509
30.7557
30.7716
30.8122
30.7746
30.7612
30.6598
30.5958
30.4391
30.3493
30.1793
28.8055
28.7443
28.8133
28.9408
29.0279
29.1619
29.2113
29.268
29.2146
29.1696
29.0358
28.9546
28.8247
28.7526
28.7959
28.9457
30.0683
30.2868
31.0304
31.3368
31.676
31.7887
31.873
31.7939
31.6855
31.3553
31.0509
30.3136
30.1045
29.0289
24.36
27.208
28.2438
29.3331
29.9279
30.6272
30.8741
31.0667
30.8835
30.65
29.9523
29.3754
28.2891
27.2962
24.318
26.0598
28.0269
32.0859
33.2672
34.6181
34.7867
35.3819
35.1942
35.3898
34.8025
34.6442
33.3161
32.1438
28.0462
26.1807
48.7555
44.9302
45.1227
43.7261
43.8711
42.6848
42.9546
42.3011
42.9531
42.6626
43.8707
43.6642
45.0707
44.9507
49.687
55.8578
52.0759
49.6919
47.5519
46.7596
45.3728
45.2424
44.6418
45.2546
45.3851
46.7945
47.5484
49.748
52.4456
56.8572
57.686
54.4913
51.7478
49.7507
48.7853
47.6171
47.3444
46.8897
47.3695
47.6615
48.8577
49.8317
51.949
55.0316
58.6842
43.5996
44.9937
42.9285
42.9457
42.0324
42.0235
41.4743
41.6155
41.4927
42.0334
42.0761
42.9353
43.0572
45.4652
45.3373
25.863
32.4612
32.6706
34.7142
34.7183
35.9832
35.679
36.2824
35.6601
35.9486
34.6342
34.5578
32.5145
32.9217
27.533
18.976
24.8789
27.7117
29.7618
30.5042
31.5945
31.6965
32.1059
31.6698
31.5588
30.3703
29.5976
27.5824
25.4669
20.1556
28.0559
29.6369
31.6274
32.242
32.5134
32.8165
32.8625
33.0077
32.8608
32.8073
32.4412
32.1388
31.7144
30.4135
29.563
25.1471
26.6889
28.505
29.4341
29.7723
30.0941
30.1892
30.3205
30.184
30.0695
29.6745
29.3196
28.6165
27.4425
26.5054
27.9443
29.1497
30.6944
31.4485
31.6868
31.7826
31.8414
31.8857
31.8442
31.762
31.6018
31.3658
30.8888
29.9667
29.3249
26.4751
27.5969
29.024
29.8547
30.1324
30.2301
30.2819
30.3226
30.2815
30.1984
30.0371
29.7812
29.2457
28.4053
27.7867
27.7437
28.7852
30.1278
30.9669
31.2613
31.3242
31.3569
31.3771
31.3552
31.2864
31.1651
30.9132
30.3895
29.6139
29.0396
26.9994
27.9713
29.2467
30.107
30.4366
30.5071
30.5294
30.5439
30.5233
30.4607
30.3374
30.0685
29.5319
28.7961
28.2537
27.6365
28.555
29.7839
30.658
31.0192
31.0953
31.1078
31.1137
31.0971
31.0411
30.919
30.6359
30.094
29.3854
28.8697
27.2991
28.1656
29.3476
30.2282
30.6185
30.7074
30.7138
30.7135
30.6978
30.6458
30.5188
30.2215
29.6763
28.9929
28.5034
27.5974
28.4221
29.5673
30.4531
30.8703
30.9727
30.9753
30.9689
30.9538
30.9043
30.7717
30.4613
29.9136
29.2495
28.7813
27.4985
28.2835
29.3917
30.2777
30.7175
30.8342
30.8347
30.823
30.8077
30.7597
30.621
30.2999
29.7523
29.1074
28.6597
27.6003
28.3522
29.4287
30.3135
30.7735
30.9052
30.9064
30.8904
30.8739
30.8253
30.6799
30.3491
29.8023
29.1737
28.7431
