# vtk DataFile Version 3.0
Structured Grid Example
ASCII
DATASET STRUCTURED_GRID
DIMENSIONS 15 30 1
POINTS 450 FLOAT
0.0833327 0.0333334 0
0.0833313 0.1 0
0.0833301 0.166667 0
0.083329 0.233333 0
0.0833281 0.3 0
0.0833274 0.366667 0
0.083327 0.433333 0
0.0833268 0.5 0
0.083327 0.566667 0
0.0833274 0.633333 0
0.0833281 0.7 0
0.083329 0.766667 0
0.0833301 0.833333 0
0.0833313 0.9 0
0.0833327 0.966667 0
0.249998 0.0333334 0
0.249993 0.1 0
0.249989 0.166667 0
0.249986 0.233334 0
0.249983 0.3 0
0.24998 0.366667 0
0.249979 0.433333 0
0.249979 0.5 0
0.249979 0.566667 0
0.24998 0.633333 0
0.249983 0.7 0
0.249986 0.766666 0
0.249989 0.833333 0
0.249993 0.9 0
0.249998 0.966667 0
0.416662 0.0333336 0
0.416654 0.100001 0
0.416646 0.166668 0
0.416639 0.233334 0
0.416633 0.300001 0
0.416628 0.366667 0
0.416626 0.433334 0
0.416625 0.5 0
0.416626 0.566666 0
0.416628 0.633333 0
0.416633 0.699999 0
0.416639 0.766666 0
0.416646 0.833332 0
0.416654 0.899999 0
0.416662 0.966666 0
0.583326 0.033334 0
0.58331 0.100002 0
0.583296 0.166669 0
0.583284 0.233336 0
0.583273 0.300003 0
0.583266 0.366669 0
0.583261 0.433335 0
0.583259 0.5 0
0.583261 0.566665 0
0.583266 0.633331 0
0.583273 0.699997 0
0.583284 0.766664 0
0.583296 0.833331 0
0.58331 0.899998 0
0.583326 0.966666 0
0.749987 0.0333351 0
0.749961 0.100005 0
0.749937 0.166674 0
0.749915 0.233342 0
0.749898 0.300008 0
0.749884 0.366673 0
0.749876 0.433337 0
0.749874 0.5 0
0.749876 0.566663 0
0.749884 0.633327 0
0.749898 0.699992 0
0.749915 0.766658 0
0.749937 0.833326 0
0.749961 0.899995 0
0.749987 0.966665 0
0.916644 0.033338 0
0.916601 0.100013 0
0.91656 0.166686 0
0.916524 0.233356 0
0.916494 0.300021 0
0.916472 0.366683 0
0.916458 0.433342 0
0.916454 0.5 0
0.916458 0.566658 0
0.916472 0.633317 0
0.916494 0.699979 0
0.916524 0.766644 0
0.91656 0.833314 0
0.916601 0.899987 0
0.916644 0.966662 0
1.0833 0.0333461 0
1.08322 0.100036 0
1.08315 0.166719 0
1.08309 0.233394 0
1.08304 0.300058 0
1.08301 0.366712 0
1.08298 0.433358 0
1.08298 0.5 0
1.08298 0.566642 0
1.08301 0.633288 0
1.08304 0.699942 0
1.08309 0.766606 0
1.08315 0.833281 0
1.08322 0.899964 0
1.0833 0.966654 0
1.24994 0.0333682 0
1.24981 0.100098 0
1.2497 0.16681 0
1.24959 0.233497 0
1.24951 0.300156 0
1.24945 0.366788 0
1.24942 0.433399 0
1.2494 0.5 0
1.24942 0.566601 0
1.24945 0.633212 0
1.24951 0.699844 0
1.24959 0.766503 0
1.2497 0.83319 0
1.24981 0.899902 0
1.24994 0.966632 0
1.41656 0.0334298 0
1.41634 0.10027 0
1.41615 0.16706 0
1.41598 0.233778 0
1.41585 0.300419 0
1.41575 0.36699 0
1.41569 0.433509 0
1.41567 0.5 0
1.41569 0.566491 0
1.41575 0.63301 0
1.41585 0.699581 0
1.41598 0.766222 0
1.41615 0.83294 0
1.41634 0.89973 0
1.41656 0.96657 0
1.58313 0.0336075 0
1.58275 0.10076 0
1.58242 0.167751 0
1.58215 0.234537 0
1.58195 0.301115 0
1.58181 0.367517 0
1.58173 0.433791 0
1.58171 0.5 0
1.58173 0.566209 0
1.58181 0.632483 0
1.58195 0.698885 0
1.58215 0.765463 0
1.58242 0.832249 0
1.58275 0.89924 0
1.58313 0.966392 0
1.74959 0.0341677 0
1.74885 0.102235 0
1.74829 0.169714 0
1.74791 0.236575 0
1.74766 0.302905 0
1.74751 0.368829 0
1.74744 0.434482 0
1.74741 0.5 0
1.74744 0.565518 0
1.74751 0.631171 0
1.74766 0.697095 0
1.74791 0.763425 0
1.74829 0.830286 0
1.74885 0.897765 0
1.74959 0.965832 0
1.91555 0.0363295 0
1.91388 0.107253 0
1.91312 0.175401 0
1.91283 0.241837 0
1.91276 0.307169 0
1.91277 0.371793 0
1.9128 0.435995 0
1.91281 0.5 0
1.9128 0.564005 0
1.91277 0.628207 0
1.91276 0.692831 0
1.91283 0.758163 0
1.91312 0.824599 0
1.91388 0.892747 0
1.91555 0.963671 0
2.07838 0.0591504 0
2.07417 0.125973 0
2.07554 0.190391 0
2.07663 0.253364 0
2.07743 0.315525 0
2.07798 0.377223 0
2.07829 0.438667 0
2.0784 0.5 0
2.07829 0.561333 0
2.07798 0.622777 0
2.07743 0.684475 0
2.07663 0.746636 0
2.07554 0.809609 0
2.07417 0.874027 0
2.07838 0.94085 0
2.24384 0.096456 0
2.23911 0.153168 0
2.24152 0.210396 0
2.24318 0.267878 0
2.24431 0.325632 0
2.24503 0.383617 0
2.24544 0.441767 0
2.24557 0.5 0
2.24544 0.558233 0
2.24503 0.616383 0
2.24431 0.674368 0
2.24318 0.732122 0
2.24152 0.789604 0
2.23911 0.846832 0
2.24384 0.903544 0
2.41462 0.118677 0
2.41292 0.170231 0
2.41356 0.223198 0
2.41406 0.277268 0
2.41444 0.332207 0
2.4147 0.387788 0
2.41485 0.44379 0
2.4149 0.5 0
2.41485 0.55621 0
2.4147 0.612212 0
2.41444 0.667793 0
2.41406 0.722732 0
2.41356 0.776802 0
2.41292 0.829769 0
2.41462 0.881323 0
2.58538 0.118677 0
2.58708 0.170231 0
2.58644 0.223198 0
2.58594 0.277268 0
2.58556 0.332207 0
2.5853 0.387788 0
2.58515 0.44379 0
2.5851 0.5 0
2.58515 0.55621 0
2.5853 0.612212 0
2.58556 0.667793 0
2.58594 0.722732 0
2.58644 0.776802 0
2.58708 0.829769 0
2.58538 0.881323 0
2.75616 0.096456 0
2.76089 0.153168 0
2.75848 0.210396 0
2.75682 0.267878 0
2.75569 0.325632 0
2.75497 0.383617 0
2.75456 0.441767 0
2.75443 0.5 0
2.75456 0.558233 0
2.75497 0.616383 0
2.75569 0.674368 0
2.75682 0.732122 0
2.75848 0.789604 0
2.76089 0.846832 0
2.75616 0.903544 0
2.92162 0.0591504 0
2.92583 0.125973 0
2.92446 0.190391 0
2.92337 0.253364 0
2.92257 0.315525 0
2.92202 0.377223 0
2.92171 0.438667 0
2.9216 0.5 0
2.92171 0.561333 0
2.92202 0.622777 0
2.92257 0.684475 0
2.92337 0.746636 0
2.92446 0.809609 0
2.92583 0.874027 0
2.92162 0.94085 0
3.08445 0.0363295 0
3.08612 0.107253 0
3.08688 0.175401 0
3.08717 0.241837 0
3.08724 0.307169 0
3.08723 0.371793 0
3.0872 0.435995 0
3.08719 0.5 0
3.0872 0.564005 0
3.08723 0.628207 0
3.08724 0.692831 0
3.08717 0.758163 0
3.08688 0.824599 0
3.08612 0.892747 0
3.08445 0.963671 0
3.25041 0.0341677 0
3.25115 0.102235 0
3.25171 0.169714 0
3.25209 0.236575 0
3.25234 0.302905 0
3.25249 0.368829 0
3.25256 0.434482 0
3.25259 0.5 0
3.25256 0.565518 0
3.25249 0.631171 0
3.25234 0.697095 0
3.25209 0.763425 0
3.25171 0.830286 0
3.25115 0.897765 0
3.25041 0.965832 0
3.41687 0.0336075 0
3.41725 0.10076 0
3.41758 0.167751 0
3.41785 0.234537 0
3.41805 0.301115 0
3.41819 0.367517 0
3.41827 0.433791 0
3.41829 0.5 0
3.41827 0.566209 0
3.41819 0.632483 0
3.41805 0.698885 0
3.41785 0.765463 0
3.41758 0.832249 0
3.41725 0.89924 0
3.41687 0.966392 0
3.58344 0.0334298 0
3.58366 0.10027 0
3.58385 0.16706 0
3.58402 0.233778 0
3.58415 0.300419 0
3.58425 0.36699 0
3.58431 0.433509 0
3.58433 0.5 0
3.58431 0.566491 0
3.58425 0.63301 0
3.58415 0.699581 0
3.58402 0.766222 0
3.58385 0.83294 0
3.58366 0.89973 0
3.58344 0.96657 0
3.75006 0.0333682 0
3.75019 0.100098 0
3.7503 0.16681 0
3.75041 0.233497 0
3.75049 0.300156 0
3.75055 0.366788 0
3.75058 0.433399 0
3.7506 0.5 0
3.75058 0.566601 0
3.75055 0.633212 0
3.75049 0.699844 0
3.75041 0.766503 0
3.7503 0.83319 0
3.75019 0.899902 0
3.75006 0.966632 0
3.9167 0.0333461 0
3.91678 0.100036 0
3.91685 0.166719 0
3.91691 0.233394 0
3.91696 0.300058 0
3.91699 0.366712 0
3.91702 0.433358 0
3.91702 0.5 0
3.91702 0.566642 0
3.91699 0.633288 0
3.91696 0.699942 0
3.91691 0.766606 0
3.91685 0.833281 0
3.91678 0.899964 0
3.9167 0.966654 0
4.08336 0.033338 0
4.0834 0.100013 0
4.08344 0.166686 0
4.08348 0.233356 0
4.08351 0.300021 0
4.08353 0.366683 0
4.08354 0.433342 0
4.08355 0.5 0
4.08354 0.566658 0
4.08353 0.633317 0
4.08351 0.699979 0
4.08348 0.766644 0
4.08344 0.833314 0
4.0834 0.899987 0
4.08336 0.966662 0
4.25001 0.0333351 0
4.25004 0.100005 0
4.25006 0.166674 0
4.25008 0.233342 0
4.2501 0.300008 0
4.25012 0.366673 0
4.25012 0.433337 0
4.25013 0.5 0
4.25012 0.566663 0
4.25012 0.633327 0
4.2501 0.699992 0
4.25008 0.766658 0
4.25006 0.833326 0
4.25004 0.899995 0
4.25001 0.966665 0
4.41667 0.033334 0
4.41669 0.100002 0
4.4167 0.166669 0
4.41672 0.233336 0
4.41673 0.300003 0
4.41673 0.366669 0
4.41674 0.433335 0
4.41674 0.5 0
4.41674 0.566665 0
4.41673 0.633331 0
4.41673 0.699997 0
4.41672 0.766664 0
4.4167 0.833331 0
4.41669 0.899998 0
4.41667 0.966666 0
4.58334 0.0333336 0
4.58335 0.100001 0
4.58335 0.166668 0
4.58336 0.233334 0
4.58337 0.300001 0
4.58337 0.366667 0
4.58337 0.433334 0
4.58338 0.5 0
4.58337 0.566666 0
4.58337 0.633333 0
4.58337 0.699999 0
4.58336 0.766666 0
4.58335 0.833332 0
4.58335 0.899999 0
4.58334 0.966666 0
4.75 0.0333334 0
4.75001 0.1 0
4.75001 0.166667 0
4.75001 0.233334 0
4.75002 0.3 0
4.75002 0.366667 0
4.75002 0.433333 0
4.75002 0.5 0
4.75002 0.566667 0
4.75002 0.633333 0
4.75002 0.7 0
4.75001 0.766666 0
4.75001 0.833333 0
4.75001 0.9 0
4.75 0.966667 0
4.91667 0.0333334 0
4.91667 0.1 0
4.91667 0.166667 0
4.91667 0.233333 0
4.91667 0.3 0
4.91667 0.366667 0
4.91667 0.433333 0
4.91667 0.5 0
4.91667 0.566667 0
4.91667 0.633333 0
4.91667 0.7 0
4.91667 0.766667 0
4.91667 0.833333 0
4.91667 0.9 0
4.91667 0.966667 0
POINT_DATA 450
SCALARS pressure float 1
LOOKUP_TABLE default
94456.9
94460.5
94464.8
94471.6
94478.1
94483.9
94488
94489.1
94488
94483.8
94478
94471.5
94464.7
94460.3
94456.8
94127.6
94141.8
94165.6
94198.4
94230.9
94260.6
94280
94287.1
94279.9
94260.4
94230.6
94198.1
94165.2
94141.3
94127.1
94450.7
94464.2
94491
94526
94560.8
94593.6
94613.4
94622.4
94613.3
94593.4
94560.6
94525.7
94490.6
94463.8
94450.3
94076.2
94084
94105.2
94130
94155.9
94180
94194
94201.1
94193.8
94179.7
94155.4
94129.5
94104.5
94083.3
94075.5
94599.2
94597.6
94605.4
94610.9
94617.2
94624.5
94625.9
94630
94625.8
94624.3
94616.8
94610.4
94604.9
94597
94598.6
94104
94088.6
94076.9
94051.7
94031.4
94010.9
93997.2
93993.1
93996.9
94010.4
94030.7
94050.9
94075.9
94087.5
94102.9
94839.5
94812.3
94778.8
94725.7
94676.3
94631.1
94600.1
94590.7
94599.9
94630.8
94675.9
94725.1
94778.2
94811.5
94838.8
94119.5
94077.8
94029.1
93943.7
93876.2
93800.6
93763
93739.9
93762.6
93799.8
93874.9
93942.1
94027.2
94075.8
94117.4
95069.1
95021.6
94960.3
94863.5
94781.7
94697.1
94651.3
94627
94651.1
94696.4
94781.1
94862.4
94959.4
95020.3
95067.9
94084.4
93986.3
93926.1
93771.3
93694.8
93567.6
93535.5
93485.1
93534.4
93565.8
93691.7
93767.7
93921.4
93981.3
94079.1
95412.1
95247.1
95165.7
94998.6
94912
94791.3
94756.1
94711.4
94755.8
94789.3
94911
94994.9
95164.2
95242.5
95409.9
94656.5
93880.2
93809.4
93357
93273.5
93044.8
93020.6
92940.9
93018.3
93041.4
93266.3
93349.2
93796.9
93866.1
94638.3
96134.1
95482.5
95063.3
94757.9
94608.8
94468.2
94427.6
94385.5
94427.2
94462.6
94607.9
94744.9
95063.3
95457.9
96135
89123.8
90204.9
89819.6
90516
90315
90751.2
90561.7
90835.7
90561.6
90756.2
90314.6
90528.7
89819
90232
89116.2
90194.8
91507.4
91399
92225.5
92066.4
92591.2
92364.3
92704
92361.1
92594.6
92056.1
92233.3
91380.6
91521.7
90159.7
87362.5
88841.7
88620.8
89608.2
89370
90029.2
89718.1
90162.5
89711.4
90026
89348.7
89598.8
88581.1
88817.4
87288.7
91752
92515.5
92287.7
92845.1
92627
93041.3
92787.9
93106.4
92782.4
93044.9
92609
92851.3
92252
92519.7
91689.2
93204.4
92699.2
92579
92413.4
92302.9
92315.2
92204.7
92297
92202.1
92332.4
92294.7
92452.3
92561.9
92772.3
93199.9
96788.5
95775.2
95619.1
95167.3
95058
94885
94836.7
94808.1
94843.5
94898.1
95080.5
95193.8
95663.5
95814.7
96889.3
92906.5
93001.8
93011.5
93088.2
93104.2
93168
93163.2
93201.4
93162.4
93170
93101.6
93090.3
93006.2
93000.4
92898.7
94997.2
94936.9
94935.6
94894.7
94910.6
94898.4
94916.3
94908.7
94918.9
94903.4
94918.2
94903.5
94947.1
94947.9
95010.9
93396.8
93419.2
93454.3
93506
93550.9
93599.8
93623.1
93639.8
93623.2
93600.3
93551.1
93506.8
93454.4
93419.8
93397.1
94528.2
94533.5
94554.7
94576.6
94605.3
94627.9
94645.4
94650.9
94646.2
94629.3
94607.3
94579
94557.4
94536
94530.6
93740.1
93743.6
93758
93773.6
93789.3
93805.6
93812.7
93819.2
93812.9
93806
93789.7
93774.3
93758.7
93744.6
93741.1
94421.7
94415.2
94413.3
94405.8
94399.8
94395.1
94389.9
94390.5
94390
94395.4
94400.2
94406.2
94413.7
94415.6
94422
93983.3
93971
93957.7
93935.2
93913.7
93895.2
93880.7
93878
93880.7
93895.3
93913.9
93935.5
93958.2
93971.6
93984.2
94386.9
94370.9
94349.6
94317
94285.7
94257.6
94237.8
94232.2
94237.8
94257.6
94285.6
94316.8
94349.4
94370.8
94386.9
94073.8
94059.2
94037.8
94006.1
93975.4
93947.6
93928.6
93922.5
93928.6
93947.6
93975.5
94006.2
94038
94059.6
94074.3
94310.3
94299.5
94282.4
94257.9
94234
94212.2
94197.7
94192.6
94197.7
94212.1
94233.9
94257.7
94282.2
94299.4
94310.2
94040.8
94036.7
94029.2
94019
94008.7
93999.2
93993.1
93990.8
93993.2
93999.4
94009
94019.4
94029.8
94037.4
94041.6
SCALARS density float 1
LOOKUP_TABLE default
1.21442
1.21446
1.21451
1.21458
1.21464
1.2147
1.21474
1.21476
1.21474
1.2147
1.21464
1.21458
1.21451
1.21446
1.21442
1.2114
1.21153
1.21175
1.21205
1.21235
1.21263
1.21281
1.21287
1.21281
1.21263
1.21235
1.21205
1.21175
1.21153
1.2114
1.21437
1.21449
1.21474
1.21506
1.21538
1.21568
1.21587
1.21595
1.21587
1.21568
1.21538
1.21506
1.21474
1.21449
1.21437
1.21093
1.211
1.2112
1.21143
1.21167
1.21189
1.21202
1.21209
1.21202
1.21189
1.21166
1.21142
1.21119
1.211
1.21093
1.21573
1.21572
1.21579
1.21584
1.2159
1.21597
1.21598
1.21602
1.21598
1.21597
1.2159
1.21584
1.21579
1.21571
1.21573
1.2112
1.21106
1.21095
1.21072
1.21054
1.21035
1.21023
1.21019
1.21022
1.21035
1.21053
1.21072
1.21095
1.21105
1.21119
1.21792
1.21767
1.21737
1.21688
1.21643
1.21602
1.21573
1.21564
1.21573
1.21601
1.21643
1.21688
1.21736
1.21767
1.21792
1.2114
1.21102
1.21057
1.20979
1.20917
1.20848
1.20813
1.20792
1.20813
1.20847
1.20916
1.20978
1.21056
1.211
1.21138
1.2199
1.21947
1.21893
1.21805
1.21731
1.21654
1.21612
1.2159
1.21612
1.21653
1.21731
1.21804
1.21892
1.21946
1.21989
1.21143
1.21053
1.20993
1.20847
1.20775
1.20657
1.20626
1.2058
1.20626
1.20655
1.20772
1.20844
1.20989
1.21049
1.21139
1.22207
1.22078
1.22022
1.21884
1.21813
1.21708
1.21678
1.21638
1.21678
1.21706
1.21813
1.21881
1.22021
1.22074
1.22206
1.21946
1.21135
1.21019
1.20559
1.20461
1.20231
1.20203
1.20124
1.20201
1.20228
1.20453
1.2055
1.21006
1.21122
1.21929
1.22597
1.22109
1.21797
1.21581
1.2147
1.21362
1.21332
1.21299
1.21332
1.21357
1.21471
1.21571
1.21799
1.22083
1.22597
1.16434
1.175
1.1711
1.17776
1.17588
1.18004
1.17826
1.18085
1.17826
1.18009
1.17588
1.17788
1.17108
1.17538
1.16491
1.17533
1.18807
1.18657
1.19418
1.19255
1.19742
1.19525
1.19842
1.19522
1.19746
1.19246
1.19425
1.1864
1.18842
1.17554
1.1471
1.16154
1.15943
1.16871
1.16649
1.17271
1.16984
1.174
1.16978
1.17269
1.16628
1.1686
1.15908
1.16155
1.14693
1.1887
1.19634
1.19452
1.19965
1.19774
1.20153
1.19926
1.20215
1.19922
1.20156
1.19757
1.19969
1.19421
1.19664
1.18905
1.20147
1.19762
1.19682
1.19509
1.19407
1.19412
1.19317
1.19396
1.19315
1.19428
1.19399
1.19541
1.19668
1.19873
1.20276
1.23223
1.22486
1.22433
1.22046
1.21953
1.21802
1.21765
1.21739
1.21771
1.21813
1.21971
1.22062
1.22477
1.22571
1.23439
1.19786
1.19957
1.2004
1.20133
1.2015
1.20211
1.20211
1.20247
1.20211
1.20212
1.20144
1.20128
1.20043
1.20009
1.19887
1.21715
1.21731
1.21804
1.21796
1.21815
1.21806
1.21827
1.21821
1.21829
1.21809
1.21816
1.21797
1.21825
1.21798
1.21834
1.20261
1.20341
1.20441
1.20521
1.20568
1.20613
1.20638
1.20655
1.20638
1.20612
1.20562
1.20515
1.20454
1.204
1.20361
1.21304
1.21364
1.21449
1.21504
1.21538
1.2156
1.21578
1.21584
1.21579
1.21559
1.21534
1.21501
1.21468
1.21426
1.21404
1.20587
1.2064
1.20715
1.20766
1.20791
1.20807
1.20814
1.20821
1.20814
1.20804
1.20784
1.20763
1.20734
1.20701
1.20682
1.21214
1.21255
1.21313
1.21344
1.2135
1.21347
1.21343
1.21344
1.21342
1.21344
1.21343
1.21341
1.21334
1.21316
1.21307
1.2082
1.20852
1.20897
1.20916
1.2091
1.20894
1.20881
1.20879
1.2088
1.2089
1.20903
1.20914
1.2092
1.20913
1.20911
1.21182
1.21208
1.21243
1.21252
1.21239
1.21215
1.21196
1.21191
1.21195
1.2121
1.21231
1.21251
1.21266
1.21268
1.21269
1.20924
1.2095
1.20984
1.20995
1.20984
1.20961
1.20943
1.20937
1.20941
1.20956
1.20977
1.20995
1.21009
1.21011
1.21012
1.21077
1.21104
1.2114
1.21157
1.21153
1.21136
1.21122
1.21116
1.2112
1.2113
1.21145
1.21158
1.21165
1.21164
1.21162
1.20978
1.2101
1.21054
1.21085
1.21096
1.21092
1.21086
1.21083
1.21084
1.21086
1.21089
1.21087
1.21081
1.2107
1.21062
SCALARS u-velocity float 1
LOOKUP_TABLE default
99.6118
99.6075
99.6061
99.6011
99.5967
99.5934
99.5896
99.5902
99.5899
99.5941
99.5976
99.6023
99.6075
99.609
99.6134
98.845
98.8239
98.7927
98.7479
98.7045
98.6649
98.6386
98.6296
98.6388
98.6654
98.7052
98.7488
98.7937
98.825
98.8461
99.8226
99.8031
99.7666
99.7187
99.6691
99.6248
99.5951
99.5846
99.5956
99.6259
99.6708
99.7209
99.7691
99.8059
99.8255
98.7069
98.6895
98.6545
98.6114
98.5686
98.5295
98.5059
98.4952
98.5062
98.53
98.5694
98.6123
98.6554
98.6905
98.7079
99.899
99.901
99.8887
99.8792
99.8604
99.8478
99.8357
99.8339
99.8368
99.85
99.8637
99.8834
99.8937
99.9067
99.9052
98.4124
98.4087
98.396
98.3936
98.3929
98.3956
98.3992
98.3993
98.3996
98.3965
98.394
98.3949
98.397
98.4095
98.4128
99.8884
99.9534
100.016
100.112
100.171
100.244
100.269
100.296
100.271
100.248
100.177
100.121
100.028
99.9667
99.9034
98.0462
98.0242
98.025
98.0754
98.1319
98.2022
98.2401
98.2661
98.2414
98.2052
98.1353
98.0804
98.0281
98.0254
98.044
99.6356
99.9527
100.154
100.479
100.647
100.874
100.936
101.016
100.941
100.883
100.662
100.497
100.178
99.9852
99.6785
97.3206
97.2332
97.3901
97.6528
97.8537
98.1244
98.239
98.3451
98.2445
98.1372
97.8669
97.676
97.409
97.2467
97.3039
97.7322
99.5979
99.9757
101.219
101.751
102.331
102.535
102.68
102.544
102.347
101.781
101.252
100.02
99.6573
97.8717
89.5958
94.5904
96.4162
98.2238
99.2517
100.406
100.826
101.141
100.842
100.444
99.2926
98.2962
96.4933
94.7435
89.5173
90.0449
94.2252
101.741
104.012
106.502
106.942
107.977
107.724
107.993
106.974
106.557
104.105
101.869
94.2941
90.3265
123.874
120.335
120.894
119.429
119.715
118.221
118.606
117.739
118.606
118.195
119.722
119.357
120.841
120.388
125.047
134.843
130.583
127.56
124.96
123.905
122.134
121.943
121.167
121.96
122.153
123.952
124.96
127.629
131.044
136.013
136.989
133.252
130.018
127.578
126.378
124.924
124.551
123.996
124.582
124.977
126.466
127.67
130.259
133.885
138.135
117.869
120.307
118.201
118.478
117.455
117.57
116.845
117.091
116.867
117.571
117.501
118.428
118.338
120.843
120.119
89.329
101.731
102.696
106.337
106.601
108.709
108.324
109.273
108.29
108.639
106.456
106.048
102.41
102.329
92.182
79.341
90.7728
95.7347
99.1723
100.368
102.125
102.276
102.929
102.233
102.067
100.149
98.9009
95.5142
91.8331
81.7599
96.2426
98.8769
102.087
103.047
103.446
103.907
103.961
104.187
103.957
103.891
103.329
102.882
102.225
100.153
98.7691
91.2833
93.9972
97.0921
98.6076
99.1281
99.6191
99.7503
99.9552
99.7416
99.5781
98.9658
98.4169
97.2805
95.3036
93.6934
96.0878
98.1055
100.624
101.805
102.148
102.264
102.335
102.395
102.339
102.231
102.011
101.672
100.939
99.4581
98.4096
93.5697
95.5086
97.9092
99.2653
99.6959
99.8303
99.8994
99.9582
99.8986
99.778
99.5392
99.1439
98.2793
96.8851
95.8388
95.6798
97.4484
99.6727
101.036
101.505
101.598
101.647
101.676
101.644
101.537
101.35
100.95
100.101
98.829
97.8695
94.3969
96.0807
98.2411
99.6807
100.234
100.36
100.404
100.429
100.394
100.284
100.072
99.6179
98.7151
97.4753
96.5472
95.4418
97.022
99.0959
100.561
101.176
101.324
101.362
101.377
101.345
101.237
101.014
100.525
99.6062
98.4111
97.5315
94.8681
96.3713
98.3887
99.8814
100.556
100.733
100.764
100.772
100.739
100.633
100.394
99.8712
98.934
97.7656
96.9228
95.3579
96.7787
98.7239
100.215
100.927
101.122
101.145
101.143
101.111
101.012
100.768
100.229
99.296
98.1665
97.3668
95.2378
96.5878
98.4689
99.9531
100.693
100.901
100.914
100.9
100.87
100.781
100.537
99.9901
99.0665
97.9738
97.2128
95.4026
96.6855
98.4967
99.9593
100.713
100.929
100.931
100.907
100.879
100.8
100.561
100.018
99.1149
98.0649
97.3417
SCALARS v-velocity float 1
LOOKUP_TABLE default
0.00903706
0.0228713
0.0352776
0.0397781
0.038635
0.0299296
0.0163663
-0.000297432
-0.0169487
-0.030475
-0.0391219
-0.0401824
-0.0355856
-0.0230596
-0.00910516
-0.00627592
-0.0201818
-0.0253071
-0.0330112
-0.0279685
-0.024251
-0.0117439
0.000482682
0.0126825
0.0251402
0.0287582
0.0336786
0.0258103
0.0204991
0.00638424
-0.0398077
-0.106513
-0.154967
-0.180905
-0.169113
-0.135146
-0.072202
6.68569e-05
0.0723297
0.135259
0.169197
0.180962
0.154989
0.106524
0.0398056
-0.0615661
-0.164583
-0.242885
-0.282385
-0.266666
-0.211756
-0.113295
0.00162993
0.116466
0.214753
0.269334
0.284636
0.244605
0.16566
0.0619483
-0.0881157
-0.228427
-0.341183
-0.388551
-0.369563
-0.289641
-0.156916
0.000546315
0.158006
0.290584
0.370341
0.389093
0.341471
0.228568
0.0881248
-0.079268
-0.214475
-0.323897
-0.373908
-0.35867
-0.281318
-0.151632
0.00406861
0.159526
0.288854
0.365431
0.379713
0.328491
0.217415
0.0803725
-0.087053
-0.215901
-0.322124
-0.354681
-0.338435
-0.259123
-0.140744
0.00162643
0.144147
0.261869
0.340737
0.356098
0.322544
0.215885
0.0867189
0.0158227
-0.0226805
-0.0495274
-0.0742327
-0.0839831
-0.0664397
-0.036242
0.00921003
0.0538896
0.0837714
0.0996168
0.0881201
0.0612746
0.0308336
-0.0122337
-0.00566374
0.0477797
0.08383
0.0997325
0.100153
0.0824236
0.0491496
0.00584358
-0.0361969
-0.0725684
-0.0912221
-0.0942799
-0.0823612
-0.0491897
0.00188146
0.388991
0.547577
0.738986
0.795389
0.653979
0.515661
0.261604
0.0193479
-0.225958
-0.478496
-0.620895
-0.764468
-0.712078
-0.52454
-0.372453
1.15282
1.82692
2.17143
2.09512
1.8414
1.33549
0.715802
0.022122
-0.663733
-1.29555
-1.79887
-2.06703
-2.1471
-1.82325
-1.18348
-0.262288
3.49649
2.70713
3.30056
2.2394
1.86704
0.856481
0.0362675
-0.795146
-1.79766
-2.18503
-3.24152
-2.67719
-3.47472
0.300465
23.166
20.0936
16.1875
13.1386
9.26201
6.29318
3.04055
0.0673939
-2.87806
-6.15571
-9.07909
-13.0006
-15.9616
-19.9203
-22.9376
25.1796
16.1488
13.2876
8.81557
6.74255
3.93289
2.09666
0.0758239
-1.95425
-3.77832
-6.60085
-8.6453
-13.1195
-15.9502
-25.3492
11.4294
7.14552
6.82324
4.23283
3.79955
2.05739
1.24593
0.0688232
-1.16093
-1.92563
-3.74231
-4.11273
-6.82137
-7.10918
-11.6614
-8.21592
-8.52878
-4.6373
-4.74778
-2.32628
-2.05859
-0.658315
0.126135
0.837848
2.31292
2.5101
5.01364
4.84008
8.81727
8.44658
-20.834
-18.0783
-12.0619
-10.0032
-6.15114
-4.34947
-1.81347
0.155812
2.03652
4.68446
6.40728
10.418
12.4368
18.7438
21.5093
-23.2893
-18.3432
-14.3329
-10.7652
-7.74013
-4.89514
-2.37354
0.188134
2.57016
5.2949
7.93953
11.253
14.5728
19.1099
23.8715
-2.44863
-0.429085
-2.1216
-1.20669
-1.63193
-0.823057
-0.569896
0.0441502
0.593558
0.897174
1.63489
1.25513
2.09207
0.363383
2.30915
-1.90752
-2.20797
-2.67473
-2.18129
-2.00884
-1.26565
-0.693072
0.0561869
0.75887
1.36727
2.06871
2.26734
2.71106
2.16614
1.8847
-0.215419
-0.319061
-0.435502
-0.284563
-0.40501
-0.226217
-0.160076
0.00995409
0.164126
0.242209
0.415128
0.305419
0.435025
0.272892
0.189354
-0.218528
-0.47804
-0.594552
-0.533967
-0.546555
-0.386073
-0.22045
0.0109057
0.233364
0.405836
0.565503
0.554465
0.58957
0.433255
0.194563
-0.101447
-0.271494
-0.321221
-0.307451
-0.314319
-0.244794
-0.141392
0.00100798
0.140918
0.2497
0.325104
0.320043
0.315002
0.240061
0.0834488
-0.118477
-0.30239
-0.378734
-0.379551
-0.365265
-0.290462
-0.164015
-0.00100214
0.161399
0.292732
0.37307
0.385446
0.365092
0.269293
0.100546
-0.0991525
-0.249227
-0.317941
-0.32274
-0.3065
-0.247012
-0.139996
-0.0017065
0.13741
0.249678
0.315169
0.329204
0.307733
0.224203
0.0854569
-0.0889485
-0.217018
-0.279097
-0.277274
-0.259493
-0.207468
-0.119369
-0.00349114
0.113824
0.207215
0.264181
0.277977
0.263931
0.190614
0.0753931
-0.0644686
-0.152383
-0.192583
-0.182277
-0.168505
-0.133958
-0.0788338
-0.00227798
0.0761155
0.136571
0.175403
0.184682
0.180637
0.13094
0.0534619
-0.0436466
-0.0989558
-0.116239
-0.0961719
-0.0842223
-0.0660468
-0.0419237
-0.00337641
0.0371939
0.0664726
0.087944
0.0945146
0.101239
0.0767009
0.0327574
-0.0254957
-0.0543215
-0.0534224
-0.0287406
-0.0186497
-0.0136009
-0.0121001
-0.00218573
0.00987608
0.0163655
0.02402
0.028439
0.0408725
0.0354378
0.016286
-0.018225
-0.0379654
-0.0276356
-0.00153548
0.0104076
0.00914751
0.00110681
-0.00275391
-0.00440305
-0.00761474
-0.00687253
-0.00111066
0.0131864
0.0182555
0.00887963
SCALARS Mach float 1
LOOKUP_TABLE default
30.0695
30.0668
30.0658
30.0626
30.0597
30.0576
30.0551
30.0554
30.0553
30.0579
30.0603
30.0633
30.0666
30.0677
30.0704
29.6231
29.6098
29.5901
29.5618
29.5344
29.5094
29.4928
29.4871
29.4929
29.5097
29.5348
29.5624
29.5907
29.6105
29.6238
30.1972
30.1848
30.1616
30.1311
30.0995
30.0712
30.0523
30.0456
30.0527
30.0719
30.1005
30.1324
30.1631
30.1865
30.199
29.5427
29.5321
29.5103
29.4835
29.4567
29.4322
29.4174
29.4107
29.4176
29.4326
29.4572
29.4841
29.5109
29.5327
29.5434
30.2367
30.2381
30.2305
30.2246
30.2129
30.2048
30.1972
30.1959
30.1979
30.2061
30.2149
30.2272
30.2336
30.2416
30.2404
29.3657
29.3643
29.3574
29.3572
29.3577
29.3601
29.3627
29.3629
29.3629
29.3607
29.3584
29.3581
29.3581
29.3648
29.3659
30.2191
30.2598
30.2997
30.3604
30.398
30.4443
30.4609
30.4774
30.4624
30.4471
30.4021
30.3657
30.3065
30.2679
30.2282
29.1475
29.1364
29.139
29.1728
29.2094
29.2547
29.2789
29.2955
29.2797
29.2565
29.2115
29.1758
29.141
29.1372
29.1463
30.0543
30.2482
30.3732
30.5753
30.6818
30.8241
30.864
30.9141
30.867
30.8297
30.6908
30.586
30.3881
30.268
30.0803
28.7239
28.6771
28.7725
28.9346
29.0563
29.2223
29.2914
29.3567
29.2947
29.2299
29.0641
28.9483
28.7837
28.6853
28.7143
28.8947
30.0244
30.2627
31.0284
31.3575
31.7177
31.8423
31.9329
31.8474
31.727
31.3758
31.0486
30.2893
30.0604
28.9777
24.3514
27.2002
28.2411
29.335
29.9348
30.6386
30.8875
31.0817
30.8968
30.6613
29.959
29.3771
28.2862
27.2883
24.3094
26.091
28.0541
32.1066
33.2738
34.6093
34.7643
35.3492
35.1588
35.3569
34.7799
34.635
33.3223
32.164
28.073
26.2123
48.8112
44.9651
45.1408
43.7204
43.8443
42.6411
42.8976
42.2421
42.8959
42.6185
43.8433
43.6578
45.0881
44.9849
49.7435
55.8714
52.0838
49.6913
47.543
46.7425
45.3495
45.2141
44.6128
45.2261
45.3615
46.7769
47.5389
49.7469
52.4528
56.8707
57.6774
54.4841
51.743
49.7467
48.7832
47.6158
47.3438
46.8894
47.3687
47.66
48.8553
49.8273
51.9439
55.0239
58.6754
43.5836
44.982
42.9244
42.9479
42.042
42.0389
41.4931
41.6361
41.5114
42.0486
42.0854
42.9372
43.0531
45.4532
45.3215
25.8595
32.4605
32.672
34.7189
34.7256
35.9942
35.6915
36.2963
35.6725
35.9594
34.6413
34.562
32.5159
32.9211
27.5295
19.0011
24.9043
27.731
29.7713
30.5028
31.583
31.6786
32.0853
31.6518
31.5471
30.3686
29.6068
27.6016
25.493
20.1814
28.1204
29.69
31.6646
32.2543
32.5013
32.7814
32.8129
32.9523
32.8111
32.7718
32.4286
32.1507
31.7514
30.4672
29.6291
25.208
26.7395
28.5383
29.4412
29.7529
30.0488
30.1277
30.2521
30.1224
30.0238
29.6546
29.3262
28.6499
27.4939
26.5676
28.0008
29.1959
30.7212
31.4482
31.6592
31.7286
31.7711
31.8081
31.7737
31.7077
31.5737
31.3653
30.9157
30.0136
29.3825
26.5072
27.6234
29.0364
29.8496
30.1089
30.189
30.2301
30.2656
30.2296
30.1571
30.0134
29.7759
29.2582
28.4322
27.8195
27.7501
28.7915
30.1281
30.9621
31.2503
31.3072
31.3369
31.3545
31.3351
31.2693
31.154
30.9084
30.3899
29.6203
29.0461
26.9831
27.9602
29.2391
30.1074
30.444
30.5209
30.5482
30.5633
30.5421
30.4745
30.345
30.069
29.5244
28.7849
28.2372
27.6031
28.5304
29.7709
30.6635
31.0425
31.1347
31.1585
31.1677
31.1479
31.0806
30.9425
30.6415
30.081
29.3605
28.8357
27.2546
28.1306
29.3283
30.2313
30.6442
30.7537
30.7739
30.7785
30.7581
30.6925
30.5448
30.225
29.6571
28.9576
28.4582
27.5532
28.3856
29.5457
30.4515
30.8892
31.0107
31.0255
31.024
31.0042
30.9426
30.7911
30.4601
29.8922
29.2128
28.7366
27.4667
28.2557
29.3739
30.2721
30.7252
30.8541
30.8622
30.8541
30.8354
30.7799
30.629
30.2947
29.7347
29.0795
28.6277
27.59
28.3413
29.4196
30.3054
30.7669
30.9004
30.902
30.887
30.8695
30.8206
30.6735
30.3412
29.7933
29.1629
28.7328
