# vtk DataFile Version 3.0
Structured Grid Example
ASCII
DATASET STRUCTURED_GRID
DIMENSIONS 15 30 1
POINTS 450 FLOAT
0.0833327 0.0333334 0
0.0833313 0.1 0
0.0833301 0.166667 0
0.083329 0.233333 0
0.0833281 0.3 0
0.0833274 0.366667 0
0.083327 0.433333 0
0.0833268 0.5 0
0.083327 0.566667 0
0.0833274 0.633333 0
0.0833281 0.7 0
0.083329 0.766667 0
0.0833301 0.833333 0
0.0833313 0.9 0
0.0833327 0.966667 0
0.249998 0.0333334 0
0.249993 0.1 0
0.249989 0.166667 0
0.249986 0.233334 0
0.249983 0.3 0
0.24998 0.366667 0
0.249979 0.433333 0
0.249979 0.5 0
0.249979 0.566667 0
0.24998 0.633333 0
0.249983 0.7 0
0.249986 0.766666 0
0.249989 0.833333 0
0.249993 0.9 0
0.249998 0.966667 0
0.416662 0.0333336 0
0.416654 0.100001 0
0.416646 0.166668 0
0.416639 0.233334 0
0.416633 0.300001 0
0.416628 0.366667 0
0.416626 0.433334 0
0.416625 0.5 0
0.416626 0.566666 0
0.416628 0.633333 0
0.416633 0.699999 0
0.416639 0.766666 0
0.416646 0.833332 0
0.416654 0.899999 0
0.416662 0.966666 0
0.583326 0.033334 0
0.58331 0.100002 0
0.583296 0.166669 0
0.583284 0.233336 0
0.583273 0.300003 0
0.583266 0.366669 0
0.583261 0.433335 0
0.583259 0.5 0
0.583261 0.566665 0
0.583266 0.633331 0
0.583273 0.699997 0
0.583284 0.766664 0
0.583296 0.833331 0
0.58331 0.899998 0
0.583326 0.966666 0
0.749987 0.0333351 0
0.749961 0.100005 0
0.749937 0.166674 0
0.749915 0.233342 0
0.749898 0.300008 0
0.749884 0.366673 0
0.749876 0.433337 0
0.749874 0.5 0
0.749876 0.566663 0
0.749884 0.633327 0
0.749898 0.699992 0
0.749915 0.766658 0
0.749937 0.833326 0
0.749961 0.899995 0
0.749987 0.966665 0
0.916644 0.033338 0
0.916601 0.100013 0
0.91656 0.166686 0
0.916524 0.233356 0
0.916494 0.300021 0
0.916472 0.366683 0
0.916458 0.433342 0
0.916454 0.5 0
0.916458 0.566658 0
0.916472 0.633317 0
0.916494 0.699979 0
0.916524 0.766644 0
0.91656 0.833314 0
0.916601 0.899987 0
0.916644 0.966662 0
1.0833 0.0333461 0
1.08322 0.100036 0
1.08315 0.166719 0
1.08309 0.233394 0
1.08304 0.300058 0
1.08301 0.366712 0
1.08298 0.433358 0
1.08298 0.5 0
1.08298 0.566642 0
1.08301 0.633288 0
1.08304 0.699942 0
1.08309 0.766606 0
1.08315 0.833281 0
1.08322 0.899964 0
1.0833 0.966654 0
1.24994 0.0333682 0
1.24981 0.100098 0
1.2497 0.16681 0
1.24959 0.233497 0
1.24951 0.300156 0
1.24945 0.366788 0
1.24942 0.433399 0
1.2494 0.5 0
1.24942 0.566601 0
1.24945 0.633212 0
1.24951 0.699844 0
1.24959 0.766503 0
1.2497 0.83319 0
1.24981 0.899902 0
1.24994 0.966632 0
1.41656 0.0334298 0
1.41634 0.10027 0
1.41615 0.16706 0
1.41598 0.233778 0
1.41585 0.300419 0
1.41575 0.36699 0
1.41569 0.433509 0
1.41567 0.5 0
1.41569 0.566491 0
1.41575 0.63301 0
1.41585 0.699581 0
1.41598 0.766222 0
1.41615 0.83294 0
1.41634 0.89973 0
1.41656 0.96657 0
1.58313 0.0336075 0
1.58275 0.10076 0
1.58242 0.167751 0
1.58215 0.234537 0
1.58195 0.301115 0
1.58181 0.367517 0
1.58173 0.433791 0
1.58171 0.5 0
1.58173 0.566209 0
1.58181 0.632483 0
1.58195 0.698885 0
1.58215 0.765463 0
1.58242 0.832249 0
1.58275 0.89924 0
1.58313 0.966392 0
1.74959 0.0341677 0
1.74885 0.102235 0
1.74829 0.169714 0
1.74791 0.236575 0
1.74766 0.302905 0
1.74751 0.368829 0
1.74744 0.434482 0
1.74741 0.5 0
1.74744 0.565518 0
1.74751 0.631171 0
1.74766 0.697095 0
1.74791 0.763425 0
1.74829 0.830286 0
1.74885 0.897765 0
1.74959 0.965832 0
1.91555 0.0363295 0
1.91388 0.107253 0
1.91312 0.175401 0
1.91283 0.241837 0
1.91276 0.307169 0
1.91277 0.371793 0
1.9128 0.435995 0
1.91281 0.5 0
1.9128 0.564005 0
1.91277 0.628207 0
1.91276 0.692831 0
1.91283 0.758163 0
1.91312 0.824599 0
1.91388 0.892747 0
1.91555 0.963671 0
2.07838 0.0591504 0
2.07417 0.125973 0
2.07554 0.190391 0
2.07663 0.253364 0
2.07743 0.315525 0
2.07798 0.377223 0
2.07829 0.438667 0
2.0784 0.5 0
2.07829 0.561333 0
2.07798 0.622777 0
2.07743 0.684475 0
2.07663 0.746636 0
2.07554 0.809609 0
2.07417 0.874027 0
2.07838 0.94085 0
2.24384 0.096456 0
2.23911 0.153168 0
2.24152 0.210396 0
2.24318 0.267878 0
2.24431 0.325632 0
2.24503 0.383617 0
2.24544 0.441767 0
2.24557 0.5 0
2.24544 0.558233 0
2.24503 0.616383 0
2.24431 0.674368 0
2.24318 0.732122 0
2.24152 0.789604 0
2.23911 0.846832 0
2.24384 0.903544 0
2.41462 0.118677 0
2.41292 0.170231 0
2.41356 0.223198 0
2.41406 0.277268 0
2.41444 0.332207 0
2.4147 0.387788 0
2.41485 0.44379 0
2.4149 0.5 0
2.41485 0.55621 0
2.4147 0.612212 0
2.41444 0.667793 0
2.41406 0.722732 0
2.41356 0.776802 0
2.41292 0.829769 0
2.41462 0.881323 0
2.58538 0.118677 0
2.58708 0.170231 0
2.58644 0.223198 0
2.58594 0.277268 0
2.58556 0.332207 0
2.5853 0.387788 0
2.58515 0.44379 0
2.5851 0.5 0
2.58515 0.55621 0
2.5853 0.612212 0
2.58556 0.667793 0
2.58594 0.722732 0
2.58644 0.776802 0
2.58708 0.829769 0
2.58538 0.881323 0
2.75616 0.096456 0
2.76089 0.153168 0
2.75848 0.210396 0
2.75682 0.267878 0
2.75569 0.325632 0
2.75497 0.383617 0
2.75456 0.441767 0
2.75443 0.5 0
2.75456 0.558233 0
2.75497 0.616383 0
2.75569 0.674368 0
2.75682 0.732122 0
2.75848 0.789604 0
2.76089 0.846832 0
2.75616 0.903544 0
2.92162 0.0591504 0
2.92583 0.125973 0
2.92446 0.190391 0
2.92337 0.253364 0
2.92257 0.315525 0
2.92202 0.377223 0
2.92171 0.438667 0
2.9216 0.5 0
2.92171 0.561333 0
2.92202 0.622777 0
2.92257 0.684475 0
2.92337 0.746636 0
2.92446 0.809609 0
2.92583 0.874027 0
2.92162 0.94085 0
3.08445 0.0363295 0
3.08612 0.107253 0
3.08688 0.175401 0
3.08717 0.241837 0
3.08724 0.307169 0
3.08723 0.371793 0
3.0872 0.435995 0
3.08719 0.5 0
3.0872 0.564005 0
3.08723 0.628207 0
3.08724 0.692831 0
3.08717 0.758163 0
3.08688 0.824599 0
3.08612 0.892747 0
3.08445 0.963671 0
3.25041 0.0341677 0
3.25115 0.102235 0
3.25171 0.169714 0
3.25209 0.236575 0
3.25234 0.302905 0
3.25249 0.368829 0
3.25256 0.434482 0
3.25259 0.5 0
3.25256 0.565518 0
3.25249 0.631171 0
3.25234 0.697095 0
3.25209 0.763425 0
3.25171 0.830286 0
3.25115 0.897765 0
3.25041 0.965832 0
3.41687 0.0336075 0
3.41725 0.10076 0
3.41758 0.167751 0
3.41785 0.234537 0
3.41805 0.301115 0
3.41819 0.367517 0
3.41827 0.433791 0
3.41829 0.5 0
3.41827 0.566209 0
3.41819 0.632483 0
3.41805 0.698885 0
3.41785 0.765463 0
3.41758 0.832249 0
3.41725 0.89924 0
3.41687 0.966392 0
3.58344 0.0334298 0
3.58366 0.10027 0
3.58385 0.16706 0
3.58402 0.233778 0
3.58415 0.300419 0
3.58425 0.36699 0
3.58431 0.433509 0
3.58433 0.5 0
3.58431 0.566491 0
3.58425 0.63301 0
3.58415 0.699581 0
3.58402 0.766222 0
3.58385 0.83294 0
3.58366 0.89973 0
3.58344 0.96657 0
3.75006 0.0333682 0
3.75019 0.100098 0
3.7503 0.16681 0
3.75041 0.233497 0
3.75049 0.300156 0
3.75055 0.366788 0
3.75058 0.433399 0
3.7506 0.5 0
3.75058 0.566601 0
3.75055 0.633212 0
3.75049 0.699844 0
3.75041 0.766503 0
3.7503 0.83319 0
3.75019 0.899902 0
3.75006 0.966632 0
3.9167 0.0333461 0
3.91678 0.100036 0
3.91685 0.166719 0
3.91691 0.233394 0
3.91696 0.300058 0
3.91699 0.366712 0
3.91702 0.433358 0
3.91702 0.5 0
3.91702 0.566642 0
3.91699 0.633288 0
3.91696 0.699942 0
3.91691 0.766606 0
3.91685 0.833281 0
3.91678 0.899964 0
3.9167 0.966654 0
4.08336 0.033338 0
4.0834 0.100013 0
4.08344 0.166686 0
4.08348 0.233356 0
4.08351 0.300021 0
4.08353 0.366683 0
4.08354 0.433342 0
4.08355 0.5 0
4.08354 0.566658 0
4.08353 0.633317 0
4.08351 0.699979 0
4.08348 0.766644 0
4.08344 0.833314 0
4.0834 0.899987 0
4.08336 0.966662 0
4.25001 0.0333351 0
4.25004 0.100005 0
4.25006 0.166674 0
4.25008 0.233342 0
4.2501 0.300008 0
4.25012 0.366673 0
4.25012 0.433337 0
4.25013 0.5 0
4.25012 0.566663 0
4.25012 0.633327 0
4.2501 0.699992 0
4.25008 0.766658 0
4.25006 0.833326 0
4.25004 0.899995 0
4.25001 0.966665 0
4.41667 0.033334 0
4.41669 0.100002 0
4.4167 0.166669 0
4.41672 0.233336 0
4.41673 0.300003 0
4.41673 0.366669 0
4.41674 0.433335 0
4.41674 0.5 0
4.41674 0.566665 0
4.41673 0.633331 0
4.41673 0.699997 0
4.41672 0.766664 0
4.4167 0.833331 0
4.41669 0.899998 0
4.41667 0.966666 0
4.58334 0.0333336 0
4.58335 0.100001 0
4.58335 0.166668 0
4.58336 0.233334 0
4.58337 0.300001 0
4.58337 0.366667 0
4.58337 0.433334 0
4.58338 0.5 0
4.58337 0.566666 0
4.58337 0.633333 0
4.58337 0.699999 0
4.58336 0.766666 0
4.58335 0.833332 0
4.58335 0.899999 0
4.58334 0.966666 0
4.75 0.0333334 0
4.75001 0.1 0
4.75001 0.166667 0
4.75001 0.233334 0
4.75002 0.3 0
4.75002 0.366667 0
4.75002 0.433333 0
4.75002 0.5 0
4.75002 0.566667 0
4.75002 0.633333 0
4.75002 0.7 0
4.75001 0.766666 0
4.75001 0.833333 0
4.75001 0.9 0
4.75 0.966667 0
4.91667 0.0333334 0
4.91667 0.1 0
4.91667 0.166667 0
4.91667 0.233333 0
4.91667 0.3 0
4.91667 0.366667 0
4.91667 0.433333 0
4.91667 0.5 0
4.91667 0.566667 0
4.91667 0.633333 0
4.91667 0.7 0
4.91667 0.766667 0
4.91667 0.833333 0
4.91667 0.9 0
4.91667 0.966667 0
POINT_DATA 450
SCALARS pressure float 1
LOOKUP_TABLE default
94472.8
94472.8
94472.8
94472.8
94472.8
94472.8
94472.8
94472.8
94472.8
94472.8
94472.8
94472.8
94472.8
94472.8
94472.8
94206.5
94206.4
94206.4
94206.2
94206.1
94205.9
94205.9
94205.8
94205.9
94205.8
94206.1
94206.1
94206.3
94206.3
94206.4
94535.5
94535.4
94535.3
94535.1
94534.9
94534.7
94534.6
94534.6
94534.6
94534.7
94534.9
94535.1
94535.3
94535.4
94535.5
94137.5
94137.2
94137.2
94136.4
94136.5
94135.6
94135.9
94135.2
94135.9
94135.5
94136.3
94136.2
94136.9
94136.9
94137.3
94613.7
94613.6
94613.3
94612.8
94612.5
94612
94611.9
94611.7
94611.9
94612
94612.5
94612.7
94613.2
94613.4
94613.6
94051.2
94049.9
94050.1
94047.2
94047.8
94044.6
94046.1
94043.4
94045.9
94044.3
94047.4
94046.7
94049.5
94049.2
94050.5
94718.1
94716.9
94716.3
94713.7
94713
94710.4
94710.6
94709
94710.5
94710.2
94712.8
94713.4
94715.9
94716.5
94717.7
93949.8
93942.1
93942.1
93927.8
93929.2
93915.1
93920
93909.9
93919.6
93914.3
93928
93926.4
93940.4
93940.3
93947.9
94879.8
94868.2
94863.3
94845.7
94840.8
94825.8
94826.2
94817.8
94826
94825.1
94840.2
94844.6
94862.4
94866.9
94878.6
93906.4
93840.6
93834.9
93754.8
93750.7
93689.9
93700.1
93665.9
93699
93688
93747.6
93751.1
93830.2
93835.4
93901
95280.9
95139.5
95101.3
94990.7
94958.6
94887.9
94883.5
94851.6
94883.1
94885.8
94957.4
94986.7
95099.4
95134.5
95278.2
94573.1
93812.5
93770.4
93352.7
93301.9
93103
93096.2
93024.6
93093.8
93099.5
93294.5
93344.7
93757.6
93798.1
94554.5
96101.3
95459.8
95050.7
94756
94614.2
94480.7
94443
94403.1
94442.4
94474.9
94613
94742.7
95050.4
95435
96102.1
89134.8
90212.6
89828
90519
90314.6
90746.9
90554.1
90827.9
90553.8
90751.6
90313.8
90531.2
89827
90239.2
89126.7
90209.8
91519.3
91409.9
92232
92070.6
92592.1
92363.4
92702.3
92359.9
92595.2
92059.8
92239.2
91390.9
91532.8
90174
87371.9
88849.4
88627.8
89612.5
89372.4
90029.6
89716.8
90161.1
89710
90026.1
89350.6
89602.4
88587.5
88824.4
87297.4
91766.6
92526.8
92295.3
92847.9
92625.7
93036.3
92780.1
93098.2
92774.5
93039.5
92607.2
92853.4
92259
92530.1
91703
93241.8
92723.9
92592.6
92411.5
92287.6
92288.9
92170.2
92260.9
92167.4
92305.7
92278.9
92449.4
92574.9
92795.9
93236.5
96862.2
95830.8
95649.9
95164.1
95022.9
94822.2
94755.1
94720.5
94761.7
94834.9
95044.9
95189.9
95693.5
95869.1
96962
93013.8
93088.1
93062.8
93091.9
93061
93083.1
93050.4
93078.9
93049.4
93084.6
93057.7
93093.1
93056.5
93085.7
93005.1
95123
95041
95000.7
94906.9
94870.2
94810
94796.8
94777.3
94799.2
94814.5
94877.2
94914.8
95011.1
95051
95136
93519.5
93523
93521
93523.7
93519.8
93523
93518.1
93522.6
93517.9
93523.1
93519.3
93523.7
93520.3
93522.7
93519.2
94621.2
94614
94606.9
94592.8
94585.6
94573.8
94571.6
94566.8
94572.1
94574.9
94587.1
94594.5
94608.8
94615.9
94623.1
93782.8
93782.9
93782.8
93782.6
93782.1
93782
93781.5
93781.8
93781.6
93782.1
93782.2
93782.9
93783.1
93783.4
93783.4
94408.5
94407.5
94406.2
94403.9
94402.6
94400.4
94400.1
94399.1
94400.2
94400.6
94402.8
94404.1
94406.4
94407.6
94408.5
93923.8
93923.9
93924
93923.9
93924
93923.9
93924
93923.9
93924.1
93924.1
93924.2
93924.2
93924.4
93924.4
93924.4
94304.1
94303.9
94303.7
94303.3
94303.1
94302.7
94302.7
94302.4
94302.7
94302.7
94303
94303.2
94303.6
94303.7
94303.9
93995
93995.1
93995.3
93995.4
93995.6
93995.7
93995.8
93995.8
93995.9
93995.8
93995.8
93995.7
93995.6
93995.5
93995.4
94255.8
94255.8
94255.8
94255.7
94255.7
94255.7
94255.7
94255.7
94255.7
94255.7
94255.7
94255.6
94255.6
94255.6
94255.6
94024.7
94024.9
94025.2
94025.5
94025.7
94025.8
94026
94026.1
94026.1
94026
94026
94025.8
94025.7
94025.5
94025.4
SCALARS density float 1
LOOKUP_TABLE default
1.21459
1.21459
1.21459
1.21459
1.21459
1.21459
1.21459
1.21459
1.21459
1.21459
1.21459
1.21459
1.21459
1.21459
1.21459
1.21213
1.21213
1.21213
1.21213
1.21213
1.21212
1.21213
1.21212
1.21213
1.21212
1.21213
1.21213
1.21213
1.21213
1.21213
1.21515
1.21515
1.21515
1.21515
1.21515
1.21514
1.21514
1.21514
1.21514
1.21514
1.21515
1.21515
1.21515
1.21515
1.21515
1.21149
1.21149
1.21149
1.21149
1.21149
1.21148
1.21149
1.21148
1.21149
1.21148
1.21149
1.21149
1.21149
1.21149
1.21149
1.21587
1.21586
1.21586
1.21586
1.21586
1.21585
1.21585
1.21585
1.21585
1.21585
1.21586
1.21586
1.21586
1.21586
1.21587
1.21071
1.2107
1.21071
1.21068
1.21069
1.21066
1.21068
1.21065
1.21068
1.21066
1.21069
1.21068
1.2107
1.2107
1.21071
1.21681
1.2168
1.21679
1.21677
1.21677
1.21674
1.21674
1.21673
1.21674
1.21674
1.21676
1.21677
1.21679
1.2168
1.21681
1.20984
1.20977
1.20977
1.20964
1.20966
1.20953
1.20958
1.20949
1.20958
1.20953
1.20965
1.20963
1.20976
1.20976
1.20982
1.21817
1.21806
1.21804
1.21789
1.21785
1.21772
1.21772
1.21765
1.21772
1.21771
1.21785
1.21788
1.21803
1.21805
1.21816
1.2098
1.20919
1.20909
1.20832
1.20826
1.20769
1.20778
1.20747
1.20777
1.20768
1.20823
1.20829
1.20905
1.20915
1.20975
1.22087
1.21979
1.21963
1.21877
1.21856
1.21796
1.21795
1.21766
1.21794
1.21794
1.21855
1.21874
1.21961
1.21975
1.22086
1.21869
1.21073
1.20983
1.20555
1.20487
1.20285
1.20273
1.20202
1.2027
1.20281
1.20479
1.20546
1.2097
1.21059
1.21852
1.22568
1.22088
1.21786
1.21579
1.21475
1.21373
1.21346
1.21314
1.21346
1.21369
1.21475
1.21569
1.21788
1.22062
1.22568
1.16443
1.17507
1.17118
1.17779
1.17588
1.18
1.1782
1.18078
1.17819
1.18005
1.17588
1.1779
1.17116
1.17545
1.16499
1.17547
1.18818
1.18667
1.19424
1.19259
1.19743
1.19525
1.19841
1.19522
1.19746
1.19249
1.1943
1.1865
1.18853
1.17567
1.14719
1.16161
1.15949
1.16875
1.16651
1.17272
1.16983
1.17398
1.16977
1.17269
1.1663
1.16863
1.15914
1.16162
1.14701
1.18884
1.19645
1.19459
1.19968
1.19773
1.20148
1.19919
1.20207
1.19914
1.20151
1.19755
1.19971
1.19428
1.19673
1.18918
1.20182
1.19785
1.19694
1.19507
1.19393
1.19387
1.19285
1.19363
1.19283
1.19403
1.19385
1.19538
1.1968
1.19895
1.2031
1.23291
1.22537
1.22462
1.22043
1.21921
1.21744
1.2169
1.21658
1.21696
1.21755
1.21938
1.22059
1.22504
1.22621
1.23506
1.19884
1.20036
1.20087
1.20136
1.2011
1.20132
1.20107
1.20134
1.20107
1.20133
1.20103
1.2013
1.20089
1.20087
1.19985
1.21831
1.21826
1.21864
1.21807
1.21777
1.21725
1.21717
1.21701
1.21719
1.21728
1.21779
1.21807
1.21884
1.21893
1.21949
1.20374
1.20437
1.20502
1.20537
1.20539
1.20543
1.20541
1.20547
1.20541
1.20541
1.20533
1.20531
1.20515
1.20495
1.20474
1.2139
1.21438
1.21497
1.21519
1.2152
1.2151
1.2151
1.21507
1.21511
1.21509
1.21515
1.21515
1.21515
1.21499
1.21489
1.20626
1.20676
1.20738
1.20775
1.20784
1.20785
1.20786
1.20787
1.20785
1.20782
1.20777
1.20771
1.20757
1.20737
1.20721
1.21202
1.21248
1.21306
1.21342
1.21353
1.21352
1.21352
1.21352
1.21352
1.21349
1.21346
1.21339
1.21327
1.21308
1.21294
1.20765
1.20809
1.20866
1.20905
1.20919
1.20921
1.20921
1.20921
1.2092
1.20917
1.20912
1.20903
1.20889
1.2087
1.20856
1.21106
1.21146
1.21201
1.2124
1.21255
1.21256
1.21256
1.21256
1.21255
1.21252
1.21247
1.21239
1.21224
1.21206
1.21193
1.20852
1.20891
1.20945
1.20985
1.21003
1.21005
1.21005
1.21005
1.21003
1.21
1.20995
1.20986
1.2097
1.20952
1.20939
1.21027
1.21064
1.21115
1.21154
1.21172
1.21176
1.21175
1.21174
1.21173
1.2117
1.21165
1.21156
1.21141
1.21124
1.21112
1.20965
1.21
1.21051
1.21091
1.2111
1.21114
1.21113
1.21112
1.21111
1.21108
1.21103
1.21093
1.21078
1.21061
1.21049
SCALARS u-velocity float 1
LOOKUP_TABLE default
99.597
99.5977
99.5985
99.5998
99.6005
99.6016
99.6018
99.6025
99.6021
99.6022
99.6013
99.6008
99.5997
99.599
99.5984
98.7381
98.7378
98.7376
98.7373
98.7372
98.7372
98.7373
98.7373
98.7374
98.7375
98.7376
98.7378
98.7381
98.7385
98.7387
99.6989
99.701
99.7033
99.7071
99.7091
99.7123
99.7127
99.7145
99.7132
99.7132
99.7104
99.7088
99.7053
99.7032
99.7013
98.6086
98.6065
98.6037
98.601
98.5993
98.5984
98.5979
98.5978
98.598
98.5986
98.5997
98.6014
98.604
98.6069
98.6089
99.8404
99.8494
99.8587
99.8733
99.88
99.8913
99.8923
99.8983
99.8933
99.8932
99.8828
99.877
99.8631
99.8544
99.8459
98.428
98.4175
98.4043
98.3952
98.3899
98.3889
98.3876
98.3888
98.3878
98.3896
98.3906
98.3961
98.4048
98.4176
98.4277
99.9688
100.015
100.057
100.118
100.144
100.188
100.192
100.213
100.194
100.192
100.15
100.126
100.067
100.028
99.9833
98.179
98.1312
98.0934
98.0887
98.0918
98.1137
98.1193
98.1343
98.1205
98.1166
98.095
98.0934
98.0962
98.1321
98.1765
99.7859
100.076
100.231
100.494
100.601
100.772
100.798
100.863
100.802
100.78
100.616
100.511
100.255
100.108
99.8287
97.4467
97.3375
97.4533
97.6626
97.81
98.0316
98.1159
98.2087
98.1214
98.0445
97.8234
97.686
97.4724
97.3512
97.4302
97.8106
99.6656
100.015
101.225
101.723
102.272
102.458
102.593
102.466
102.288
101.754
101.259
100.059
99.7254
97.9504
89.607
94.6052
96.424
98.2278
99.2465
100.394
100.81
101.122
100.825
100.432
99.2876
98.3003
96.5014
94.7584
89.5284
90.0027
94.2067
101.737
104.029
106.533
106.986
108.03
107.779
108.046
107.018
106.588
104.122
101.866
94.2759
90.2834
123.813
120.3
120.883
119.447
119.759
118.284
118.685
117.82
118.685
118.259
119.766
119.375
120.831
120.353
124.985
134.83
130.577
127.565
124.975
123.931
122.167
121.982
121.206
121.998
122.185
123.977
124.975
127.636
131.038
136
137
133.26
130.023
127.581
126.38
124.925
124.551
123.996
124.582
124.978
126.468
127.674
130.263
133.893
138.146
117.888
120.317
118.2
118.468
117.437
117.545
116.817
117.06
116.839
117.546
117.483
118.419
118.336
120.852
120.137
89.3306
101.722
102.68
106.318
106.58
108.686
108.3
109.248
108.266
108.616
106.435
106.029
102.394
102.32
92.1832
79.292
90.7299
95.7015
99.1548
100.365
102.138
102.298
102.955
102.255
102.08
100.147
98.8837
95.4809
91.7897
81.7113
96.1395
98.7945
102.031
103.027
103.461
103.956
104.031
104.265
104.028
103.94
103.345
102.862
102.168
100.071
98.6664
91.1806
93.9149
97.0399
98.5969
99.1582
99.6885
99.8443
100.06
99.8358
99.6482
98.9967
98.4068
97.2282
95.2213
93.5913
95.9986
98.035
100.585
101.807
102.192
102.347
102.441
102.513
102.446
102.314
102.055
101.675
100.9
99.3876
98.3209
93.5182
95.4679
97.892
99.2754
99.7344
99.8956
99.9808
100.048
99.9801
99.8437
99.5781
99.1542
98.262
96.8443
95.7877
95.6708
97.4401
99.6742
101.045
101.523
101.625
101.678
101.711
101.676
101.565
101.368
100.959
100.102
98.8206
97.8606
94.4238
96.0989
98.2535
99.6803
100.222
100.338
100.375
100.398
100.365
100.262
100.06
99.6172
98.7273
97.4934
96.5739
95.4953
97.0604
99.1152
100.551
101.139
101.262
101.282
101.292
101.265
101.175
100.977
100.515
99.6253
98.4493
97.5846
94.9404
96.4269
98.4182
99.8754
100.515
100.66
100.67
100.67
100.644
100.56
100.352
99.8646
98.9631
97.8207
96.9943
95.4297
96.837
98.7574
100.217
100.897
101.064
101.068
101.057
101.033
100.953
100.738
100.231
99.329
98.2241
97.4376
95.29
96.6331
98.4974
99.9623
100.682
100.872
100.872
100.853
100.829
100.751
100.525
99.9987
99.0944
98.0184
97.2641
95.4195
96.7033
98.5118
99.9733
100.725
100.939
100.941
100.915
100.889
100.81
100.573
100.032
99.1297
98.0823
97.3581
SCALARS v-velocity float 1
LOOKUP_TABLE default
-0.000434344
-0.000900013
-0.00144773
-0.00148014
-0.00148275
-0.00112151
-0.000734362
-0.000216758
0.000310924
0.000722579
0.00112648
0.00118111
0.00122029
0.000758255
0.00038513
0.000601789
0.00105996
0.00183375
0.00176767
0.00185478
0.00138365
0.000993442
0.000403945
-0.000204106
-0.000641419
-0.00119288
-0.00121339
-0.00141296
-0.000797834
-0.00051105
-0.000816179
-0.0018588
-0.00270514
-0.00267734
-0.00245484
-0.0017574
-0.0010111
-0.000128511
0.000764117
0.00151253
0.00222759
0.00247126
0.00253301
0.00174749
0.000771795
0.00332475
0.00621354
0.0102377
0.0100083
0.010086
0.00742629
0.00482391
0.00126451
-0.00235814
-0.00509416
-0.00799739
-0.00824
-0.00887397
-0.00535633
-0.00302055
-0.00235497
-0.00555759
-0.00688338
-0.00624589
-0.00483993
-0.0032108
-0.0015342
-2.01979e-05
0.00152709
0.00312564
0.00471965
0.0060469
0.00662311
0.00536343
0.00224339
0.015063
0.027773
0.0435819
0.0421765
0.0411042
0.0300013
0.0182693
0.00334669
-0.0117779
-0.0237793
-0.035497
-0.0373229
-0.0396972
-0.0252653
-0.0141164
-0.00561097
-0.00986839
-0.0048685
-5.25061e-05
0.00566703
0.00588811
0.00502868
0.00073157
-0.00337112
-0.0047749
-0.00480773
0.000276623
0.00439272
0.00930814
0.00507678
0.0738002
0.120411
0.176711
0.173486
0.160596
0.118624
0.0669241
0.00822443
-0.0511942
-0.103089
-0.146547
-0.160905
-0.165946
-0.112851
-0.0704355
0.0154818
0.0954944
0.168245
0.184606
0.190636
0.145953
0.0866542
0.0047632
-0.0758248
-0.138071
-0.183462
-0.180601
-0.167878
-0.097579
-0.0195215
0.377256
0.509827
0.694579
0.733828
0.604427
0.469746
0.239501
0.0182536
-0.205959
-0.434564
-0.573072
-0.704328
-0.668742
-0.487419
-0.360985
1.11454
1.72034
2.02118
1.91448
1.67646
1.20052
0.644681
0.0211827
-0.594497
-1.16227
-1.63546
-1.88763
-1.9978
-1.71731
-1.14547
-0.314512
3.35791
2.50706
3.06905
2.0241
1.69601
0.764861
0.0353823
-0.705229
-1.62825
-1.97114
-3.01123
-2.4781
-3.33689
0.3523
23.1014
19.9515
15.9934
12.9212
9.06155
6.13636
2.95617
0.0665472
-2.79546
-6.00037
-8.88004
-12.7842
-15.7683
-19.7786
-22.8726
25.1272
16.0647
13.1673
8.69082
6.62429
3.84336
2.04748
0.0752385
-1.90641
-3.68985
-6.48364
-8.52131
-12.9998
-15.8664
-25.2965
11.4078
7.10001
6.7545
4.15932
3.72766
2.00312
1.21547
0.0685485
-1.13117
-1.87188
-3.67094
-4.03962
-6.75283
-7.06381
-11.6396
-8.23296
-8.56851
-4.69724
-4.81288
-2.3903
-2.10701
-0.685573
0.126033
0.864718
2.36111
2.5738
5.0785
4.89983
8.85682
8.46363
-20.8602
-18.1315
-12.1377
-10.0846
-6.22956
-4.40864
-1.84642
0.155813
2.0693
4.74358
6.48558
10.4993
12.5126
18.7969
21.5356
-23.321
-18.4088
-14.4356
-10.8763
-7.84882
-4.97749
-2.41942
0.188213
2.61595
5.37727
8.04814
11.3639
14.6756
19.1751
23.9038
-2.47035
-0.487265
-2.21544
-1.30924
-1.73454
-0.900163
-0.613624
0.0442333
0.637322
0.974397
1.73753
1.35769
2.18614
0.421841
2.33124
-1.91092
-2.2182
-2.69867
-2.20573
-2.03903
-1.28648
-0.706582
0.0564938
0.772835
1.38866
2.09931
2.29219
2.73552
2.17688
1.88833
-0.198955
-0.272004
-0.372508
-0.206557
-0.336812
-0.168511
-0.130716
0.0105973
0.135931
0.185659
0.347906
0.228268
0.37277
0.226316
0.173091
-0.17725
-0.366186
-0.43345
-0.343351
-0.370218
-0.243262
-0.14449
0.0118639
0.159192
0.26472
0.390597
0.36502
0.429281
0.321724
0.153373
-0.0392692
-0.105881
-0.0769063
-0.0224203
-0.045799
-0.0302197
-0.0256642
0.00221451
0.027479
0.0372399
0.0583675
0.0363652
0.0714631
0.0745824
0.0212425
-0.0450124
-0.109087
-0.0898
-0.045902
-0.0480109
-0.0392176
-0.0274709
0.000353394
0.0274479
0.0438587
0.0578139
0.0532547
0.0768987
0.0760251
0.0270019
-0.0259202
-0.0588149
-0.0302207
0.00640791
0.00887842
0.000794785
-0.0044399
-0.000373874
0.00442154
0.00421173
0.00176839
0.00147849
0.0207222
0.033848
0.0121605
-0.0274466
-0.0595475
-0.0382226
-0.00458485
0.00399253
-0.00214169
-0.00620332
-0.00228883
0.00299285
0.00402826
0.0025321
0.00664451
0.0238143
0.0333508
0.0139093
-0.0212322
-0.0438839
-0.0239355
0.00595904
0.0154865
0.00788536
0.000181902
-0.0013111
-0.00100981
-0.00352001
-0.00705012
-0.00234062
0.0128056
0.0228595
0.0103587
-0.0214049
-0.044971
-0.0298799
-0.00231218
0.00953566
0.00477927
-0.00166867
-0.00280476
-0.00192858
-0.0032837
-0.00483025
0.00151994
0.0156001
0.0232337
0.0107164
-0.017968
-0.0373334
-0.0241838
0.000641767
0.0125751
0.00858484
0.00129298
-0.00192258
-0.00298485
-0.0052998
-0.00668725
-0.000395905
0.0122173
0.0189767
0.00897996
-0.0186194
-0.0396371
-0.0290508
-0.00511119
0.00823559
0.00634013
0.000135011
-0.00273897
-0.00339801
-0.0047738
-0.00465795
0.00259255
0.0148563
0.0202594
0.00942441
SCALARS Mach float 1
LOOKUP_TABLE default
30.06
30.0604
30.0609
30.0617
30.0622
30.0629
30.063
30.0634
30.0632
30.0632
30.0627
30.0624
30.0617
30.0613
30.0609
29.5555
29.5554
29.5552
29.5551
29.5551
29.5551
29.5551
29.5552
29.5552
29.5553
29.5553
29.5554
29.5556
29.5558
29.5559
30.1185
30.1198
30.1212
30.1235
30.1248
30.1267
30.127
30.128
30.1273
30.1273
30.1256
30.1246
30.1224
30.1212
30.12
29.4812
29.48
29.4783
29.4768
29.4757
29.4752
29.4749
29.4749
29.475
29.4754
29.476
29.477
29.4785
29.4802
29.4814
30.2005
30.206
30.2116
30.2205
30.2246
30.2314
30.2321
30.2357
30.2327
30.2326
30.2263
30.2227
30.2143
30.209
30.2039
29.3773
29.3711
29.3633
29.358
29.3548
29.3544
29.3535
29.3544
29.3537
29.3548
29.3553
29.3586
29.3636
29.3712
29.3772
30.2733
30.3016
30.3267
30.364
30.3796
30.4064
30.409
30.4218
30.4104
30.409
30.3836
30.3691
30.3332
30.3094
30.2821
29.2341
29.206
29.1836
29.1814
29.1832
29.1969
29.2
29.2094
29.2008
29.1987
29.1852
29.1843
29.1854
29.2066
29.2327
30.1537
30.3298
30.4245
30.5852
30.6508
30.7555
30.7714
30.8119
30.7743
30.761
30.6598
30.5958
30.4393
30.3495
30.1796
28.8061
28.7449
28.8137
28.9409
29.0277
29.1615
29.2107
29.2673
29.2139
29.1692
29.0357
28.9547
28.825
28.7532
28.7966
28.9465
30.069
30.2873
31.0305
31.3365
31.6754
31.7879
31.8721
31.7931
31.6849
31.355
31.0509
30.3141
30.1053
29.0297
24.3606
27.2086
28.2442
29.3331
29.9276
30.6265
30.8733
31.0657
30.8827
30.6493
29.952
29.3754
28.2895
27.2968
24.3186
26.0604
28.0273
32.0862
33.2672
34.6179
34.7863
35.3814
35.1936
35.3892
34.8021
34.6441
33.3162
32.1441
28.0466
26.1812
48.7559
44.9305
45.1229
43.7262
43.8712
42.6849
42.9546
42.3011
42.9531
42.6626
43.8708
43.6643
45.071
44.951
49.6874
55.858
52.0761
49.692
47.552
46.7597
45.3728
45.2424
44.6418
45.2546
45.3851
46.7945
47.5485
49.7481
52.4457
56.8573
57.6862
54.4915
51.7478
49.7507
48.7851
47.6169
47.3441
46.8895
47.3692
47.6614
48.8576
49.8316
51.949
55.0317
58.6844
43.5999
44.9939
42.9285
42.9457
42.0322
42.0232
41.4738
41.615
41.4922
42.033
42.0758
42.9353
43.0573
45.4654
45.3377
25.8633
32.4614
32.6707
34.7141
34.718
35.9827
35.6785
36.2818
35.6596
35.9482
34.6339
34.5578
32.5146
32.922
27.5333
18.976
24.8789
27.7117
29.7617
30.5041
31.5944
31.6964
32.1058
31.6696
31.5587
30.3702
29.5976
27.5824
25.4669
20.1556
28.0555
29.6367
31.6273
32.242
32.5136
32.8168
32.8629
33.0082
32.8612
32.8076
32.4413
32.1388
31.7142
30.4132
29.5627
25.1465
26.6885
28.5047
29.4342
29.7726
30.0947
30.1899
30.3213
30.1847
30.07
29.6748
29.3196
28.6162
27.4421
26.5048
27.9436
29.1491
30.6941
31.4485
31.6872
31.7833
31.8424
31.8867
31.8452
31.7627
31.6021
31.3659
30.8884
29.9661
29.3241
26.4743
27.5963
29.0237
29.8547
30.1327
30.2308
30.2827
30.3236
30.2823
30.1991
30.0375
29.7811
29.2453
28.4047
27.786
27.743
28.7847
30.1274
30.9668
31.2615
31.3246
31.3575
31.3778
31.3558
31.2868
31.1653
30.9131
30.3892
29.6133
29.0389
26.999
27.971
29.2465
30.1069
30.4366
30.5073
30.5296
30.5441
30.5235
30.4609
30.3375
30.0684
29.5317
28.7957
28.2534
27.6365
28.555
29.7838
30.658
31.0191
31.0952
31.1076
31.1135
31.0969
31.0409
30.9189
30.6358
30.0939
29.3854
28.8698
27.2995
28.1659
29.3478
30.2282
30.6184
30.707
30.7134
30.713
30.6974
30.6455
30.5186
30.2215
29.6765
28.9932
28.5038
27.598
28.4226
29.5676
30.4532
30.8701
30.9724
30.9748
30.9684
30.9533
30.904
30.7715
30.4614
29.9139
29.25
28.7819
27.4991
28.284
29.3921
30.2778
30.7174
30.8338
30.8343
30.8225
30.8073
30.7594
30.6209
30.3
29.7526
29.1079
28.6603
27.6006
28.3524
29.4288
30.3135
30.7735
30.9051
30.9062
30.8901
30.8737
30.8251
30.6798
30.3492
29.8025
29.174
28.7434
