# vtk DataFile Version 3.0
Structured Grid Example
ASCII
DATASET STRUCTURED_GRID
DIMENSIONS 15 30 1
POINTS 450 FLOAT
0.0833327 0.0333334 0
0.0833313 0.1 0
0.0833301 0.166667 0
0.083329 0.233333 0
0.0833281 0.3 0
0.0833274 0.366667 0
0.083327 0.433333 0
0.0833268 0.5 0
0.083327 0.566667 0
0.0833274 0.633333 0
0.0833281 0.7 0
0.083329 0.766667 0
0.0833301 0.833333 0
0.0833313 0.9 0
0.0833327 0.966667 0
0.249998 0.0333334 0
0.249993 0.1 0
0.249989 0.166667 0
0.249986 0.233334 0
0.249983 0.3 0
0.24998 0.366667 0
0.249979 0.433333 0
0.249979 0.5 0
0.249979 0.566667 0
0.24998 0.633333 0
0.249983 0.7 0
0.249986 0.766666 0
0.249989 0.833333 0
0.249993 0.9 0
0.249998 0.966667 0
0.416662 0.0333336 0
0.416654 0.100001 0
0.416646 0.166668 0
0.416639 0.233334 0
0.416633 0.300001 0
0.416628 0.366667 0
0.416626 0.433334 0
0.416625 0.5 0
0.416626 0.566666 0
0.416628 0.633333 0
0.416633 0.699999 0
0.416639 0.766666 0
0.416646 0.833332 0
0.416654 0.899999 0
0.416662 0.966666 0
0.583326 0.033334 0
0.58331 0.100002 0
0.583296 0.166669 0
0.583284 0.233336 0
0.583273 0.300003 0
0.583266 0.366669 0
0.583261 0.433335 0
0.583259 0.5 0
0.583261 0.566665 0
0.583266 0.633331 0
0.583273 0.699997 0
0.583284 0.766664 0
0.583296 0.833331 0
0.58331 0.899998 0
0.583326 0.966666 0
0.749987 0.0333351 0
0.749961 0.100005 0
0.749937 0.166674 0
0.749915 0.233342 0
0.749898 0.300008 0
0.749884 0.366673 0
0.749876 0.433337 0
0.749874 0.5 0
0.749876 0.566663 0
0.749884 0.633327 0
0.749898 0.699992 0
0.749915 0.766658 0
0.749937 0.833326 0
0.749961 0.899995 0
0.749987 0.966665 0
0.916644 0.033338 0
0.916601 0.100013 0
0.91656 0.166686 0
0.916524 0.233356 0
0.916494 0.300021 0
0.916472 0.366683 0
0.916458 0.433342 0
0.916454 0.5 0
0.916458 0.566658 0
0.916472 0.633317 0
0.916494 0.699979 0
0.916524 0.766644 0
0.91656 0.833314 0
0.916601 0.899987 0
0.916644 0.966662 0
1.0833 0.0333461 0
1.08322 0.100036 0
1.08315 0.166719 0
1.08309 0.233394 0
1.08304 0.300058 0
1.08301 0.366712 0
1.08298 0.433358 0
1.08298 0.5 0
1.08298 0.566642 0
1.08301 0.633288 0
1.08304 0.699942 0
1.08309 0.766606 0
1.08315 0.833281 0
1.08322 0.899964 0
1.0833 0.966654 0
1.24994 0.0333682 0
1.24981 0.100098 0
1.2497 0.16681 0
1.24959 0.233497 0
1.24951 0.300156 0
1.24945 0.366788 0
1.24942 0.433399 0
1.2494 0.5 0
1.24942 0.566601 0
1.24945 0.633212 0
1.24951 0.699844 0
1.24959 0.766503 0
1.2497 0.83319 0
1.24981 0.899902 0
1.24994 0.966632 0
1.41656 0.0334298 0
1.41634 0.10027 0
1.41615 0.16706 0
1.41598 0.233778 0
1.41585 0.300419 0
1.41575 0.36699 0
1.41569 0.433509 0
1.41567 0.5 0
1.41569 0.566491 0
1.41575 0.63301 0
1.41585 0.699581 0
1.41598 0.766222 0
1.41615 0.83294 0
1.41634 0.89973 0
1.41656 0.96657 0
1.58313 0.0336075 0
1.58275 0.10076 0
1.58242 0.167751 0
1.58215 0.234537 0
1.58195 0.301115 0
1.58181 0.367517 0
1.58173 0.433791 0
1.58171 0.5 0
1.58173 0.566209 0
1.58181 0.632483 0
1.58195 0.698885 0
1.58215 0.765463 0
1.58242 0.832249 0
1.58275 0.89924 0
1.58313 0.966392 0
1.74959 0.0341677 0
1.74885 0.102235 0
1.74829 0.169714 0
1.74791 0.236575 0
1.74766 0.302905 0
1.74751 0.368829 0
1.74744 0.434482 0
1.74741 0.5 0
1.74744 0.565518 0
1.74751 0.631171 0
1.74766 0.697095 0
1.74791 0.763425 0
1.74829 0.830286 0
1.74885 0.897765 0
1.74959 0.965832 0
1.91555 0.0363295 0
1.91388 0.107253 0
1.91312 0.175401 0
1.91283 0.241837 0
1.91276 0.307169 0
1.91277 0.371793 0
1.9128 0.435995 0
1.91281 0.5 0
1.9128 0.564005 0
1.91277 0.628207 0
1.91276 0.692831 0
1.91283 0.758163 0
1.91312 0.824599 0
1.91388 0.892747 0
1.91555 0.963671 0
2.07838 0.0591504 0
2.07417 0.125973 0
2.07554 0.190391 0
2.07663 0.253364 0
2.07743 0.315525 0
2.07798 0.377223 0
2.07829 0.438667 0
2.0784 0.5 0
2.07829 0.561333 0
2.07798 0.622777 0
2.07743 0.684475 0
2.07663 0.746636 0
2.07554 0.809609 0
2.07417 0.874027 0
2.07838 0.94085 0
2.24384 0.096456 0
2.23911 0.153168 0
2.24152 0.210396 0
2.24318 0.267878 0
2.24431 0.325632 0
2.24503 0.383617 0
2.24544 0.441767 0
2.24557 0.5 0
2.24544 0.558233 0
2.24503 0.616383 0
2.24431 0.674368 0
2.24318 0.732122 0
2.24152 0.789604 0
2.23911 0.846832 0
2.24384 0.903544 0
2.41462 0.118677 0
2.41292 0.170231 0
2.41356 0.223198 0
2.41406 0.277268 0
2.41444 0.332207 0
2.4147 0.387788 0
2.41485 0.44379 0
2.4149 0.5 0
2.41485 0.55621 0
2.4147 0.612212 0
2.41444 0.667793 0
2.41406 0.722732 0
2.41356 0.776802 0
2.41292 0.829769 0
2.41462 0.881323 0
2.58538 0.118677 0
2.58708 0.170231 0
2.58644 0.223198 0
2.58594 0.277268 0
2.58556 0.332207 0
2.5853 0.387788 0
2.58515 0.44379 0
2.5851 0.5 0
2.58515 0.55621 0
2.5853 0.612212 0
2.58556 0.667793 0
2.58594 0.722732 0
2.58644 0.776802 0
2.58708 0.829769 0
2.58538 0.881323 0
2.75616 0.096456 0
2.76089 0.153168 0
2.75848 0.210396 0
2.75682 0.267878 0
2.75569 0.325632 0
2.75497 0.383617 0
2.75456 0.441767 0
2.75443 0.5 0
2.75456 0.558233 0
2.75497 0.616383 0
2.75569 0.674368 0
2.75682 0.732122 0
2.75848 0.789604 0
2.76089 0.846832 0
2.75616 0.903544 0
2.92162 0.0591504 0
2.92583 0.125973 0
2.92446 0.190391 0
2.92337 0.253364 0
2.92257 0.315525 0
2.92202 0.377223 0
2.92171 0.438667 0
2.9216 0.5 0
2.92171 0.561333 0
2.92202 0.622777 0
2.92257 0.684475 0
2.92337 0.746636 0
2.92446 0.809609 0
2.92583 0.874027 0
2.92162 0.94085 0
3.08445 0.0363295 0
3.08612 0.107253 0
3.08688 0.175401 0
3.08717 0.241837 0
3.08724 0.307169 0
3.08723 0.371793 0
3.0872 0.435995 0
3.08719 0.5 0
3.0872 0.564005 0
3.08723 0.628207 0
3.08724 0.692831 0
3.08717 0.758163 0
3.08688 0.824599 0
3.08612 0.892747 0
3.08445 0.963671 0
3.25041 0.0341677 0
3.25115 0.102235 0
3.25171 0.169714 0
3.25209 0.236575 0
3.25234 0.302905 0
3.25249 0.368829 0
3.25256 0.434482 0
3.25259 0.5 0
3.25256 0.565518 0
3.25249 0.631171 0
3.25234 0.697095 0
3.25209 0.763425 0
3.25171 0.830286 0
3.25115 0.897765 0
3.25041 0.965832 0
3.41687 0.0336075 0
3.41725 0.10076 0
3.41758 0.167751 0
3.41785 0.234537 0
3.41805 0.301115 0
3.41819 0.367517 0
3.41827 0.433791 0
3.41829 0.5 0
3.41827 0.566209 0
3.41819 0.632483 0
3.41805 0.698885 0
3.41785 0.765463 0
3.41758 0.832249 0
3.41725 0.89924 0
3.41687 0.966392 0
3.58344 0.0334298 0
3.58366 0.10027 0
3.58385 0.16706 0
3.58402 0.233778 0
3.58415 0.300419 0
3.58425 0.36699 0
3.58431 0.433509 0
3.58433 0.5 0
3.58431 0.566491 0
3.58425 0.63301 0
3.58415 0.699581 0
3.58402 0.766222 0
3.58385 0.83294 0
3.58366 0.89973 0
3.58344 0.96657 0
3.75006 0.0333682 0
3.75019 0.100098 0
3.7503 0.16681 0
3.75041 0.233497 0
3.75049 0.300156 0
3.75055 0.366788 0
3.75058 0.433399 0
3.7506 0.5 0
3.75058 0.566601 0
3.75055 0.633212 0
3.75049 0.699844 0
3.75041 0.766503 0
3.7503 0.83319 0
3.75019 0.899902 0
3.75006 0.966632 0
3.9167 0.0333461 0
3.91678 0.100036 0
3.91685 0.166719 0
3.91691 0.233394 0
3.91696 0.300058 0
3.91699 0.366712 0
3.91702 0.433358 0
3.91702 0.5 0
3.91702 0.566642 0
3.91699 0.633288 0
3.91696 0.699942 0
3.91691 0.766606 0
3.91685 0.833281 0
3.91678 0.899964 0
3.9167 0.966654 0
4.08336 0.033338 0
4.0834 0.100013 0
4.08344 0.166686 0
4.08348 0.233356 0
4.08351 0.300021 0
4.08353 0.366683 0
4.08354 0.433342 0
4.08355 0.5 0
4.08354 0.566658 0
4.08353 0.633317 0
4.08351 0.699979 0
4.08348 0.766644 0
4.08344 0.833314 0
4.0834 0.899987 0
4.08336 0.966662 0
4.25001 0.0333351 0
4.25004 0.100005 0
4.25006 0.166674 0
4.25008 0.233342 0
4.2501 0.300008 0
4.25012 0.366673 0
4.25012 0.433337 0
4.25013 0.5 0
4.25012 0.566663 0
4.25012 0.633327 0
4.2501 0.699992 0
4.25008 0.766658 0
4.25006 0.833326 0
4.25004 0.899995 0
4.25001 0.966665 0
4.41667 0.033334 0
4.41669 0.100002 0
4.4167 0.166669 0
4.41672 0.233336 0
4.41673 0.300003 0
4.41673 0.366669 0
4.41674 0.433335 0
4.41674 0.5 0
4.41674 0.566665 0
4.41673 0.633331 0
4.41673 0.699997 0
4.41672 0.766664 0
4.4167 0.833331 0
4.41669 0.899998 0
4.41667 0.966666 0
4.58334 0.0333336 0
4.58335 0.100001 0
4.58335 0.166668 0
4.58336 0.233334 0
4.58337 0.300001 0
4.58337 0.366667 0
4.58337 0.433334 0
4.58338 0.5 0
4.58337 0.566666 0
4.58337 0.633333 0
4.58337 0.699999 0
4.58336 0.766666 0
4.58335 0.833332 0
4.58335 0.899999 0
4.58334 0.966666 0
4.75 0.0333334 0
4.75001 0.1 0
4.75001 0.166667 0
4.75001 0.233334 0
4.75002 0.3 0
4.75002 0.366667 0
4.75002 0.433333 0
4.75002 0.5 0
4.75002 0.566667 0
4.75002 0.633333 0
4.75002 0.7 0
4.75001 0.766666 0
4.75001 0.833333 0
4.75001 0.9 0
4.75 0.966667 0
4.91667 0.0333334 0
4.91667 0.1 0
4.91667 0.166667 0
4.91667 0.233333 0
4.91667 0.3 0
4.91667 0.366667 0
4.91667 0.433333 0
4.91667 0.5 0
4.91667 0.566667 0
4.91667 0.633333 0
4.91667 0.7 0
4.91667 0.766667 0
4.91667 0.833333 0
4.91667 0.9 0
4.91667 0.966667 0
POINT_DATA 450
SCALARS pressure float 1
LOOKUP_TABLE default
94472.9
94472.9
94472.8
94472.8
94472.8
94472.8
94472.8
94472.8
94472.8
94472.8
94472.8
94472.8
94472.8
94472.8
94472.8
94205.7
94205.8
94206
94206.1
94206.4
94206.4
94206.7
94206.6
94206.7
94206.4
94206.3
94206
94205.9
94205.6
94205.6
94534.1
94534.3
94534.6
94535
94535.3
94535.7
94535.9
94536
94535.9
94535.7
94535.3
94534.9
94534.5
94534.2
94534
94135.9
94135.9
94136.3
94136.2
94137
94136.7
94137.4
94136.8
94137.3
94136.6
94136.8
94136.1
94136.1
94135.6
94135.7
94612.3
94612.4
94612.6
94612.7
94613
94613
94613.2
94613.1
94613.2
94613
94612.9
94612.6
94612.5
94612.2
94612.2
94050.4
94049.1
94049.6
94047.1
94048.1
94045.2
94046.9
94044.3
94046.7
94044.9
94047.7
94046.6
94049
94048.5
94049.7
94718.2
94716.9
94716.3
94713.7
94713
94710.4
94710.5
94709
94710.5
94710.2
94712.8
94713.4
94716
94716.5
94717.8
93950.8
93942.8
93942.6
93927.9
93928.9
93914.5
93919.1
93909
93918.7
93913.7
93927.7
93926.5
93940.9
93941
93948.8
94881.5
94869.5
94864.1
94845.9
94840.3
94824.7
94824.6
94816.2
94824.4
94824
94839.7
94844.8
94863.2
94868.2
94880.3
93908.5
93842.2
93836
93755
93750.1
93688.5
93698.2
93663.8
93697.1
93686.6
93746.9
93751.3
93831.2
93837.1
93903
95282.9
95141.1
95102.3
94990.8
94957.9
94886.5
94881.6
94849.5
94881.2
94884.3
94956.7
94986.9
95100.4
95136.1
95280.2
94574.8
93813.8
93771.2
93352.7
93301.3
93101.9
93094.7
93022.9
93092.3
93098.4
93294
93344.8
93758.4
93799.4
94556.1
96102.3
95460.6
95051.1
94756
94613.8
94480
94442.2
94402.1
94441.6
94474.3
94612.7
94742.8
95050.8
95435.7
96103.1
89135.1
90212.8
89828.1
90519
90314.5
90746.7
90553.9
90827.6
90553.6
90751.4
90313.7
90531.2
89827.1
90239.3
89127
90209.7
91519.3
91409.9
92232
92070.5
92592.1
92363.3
92702.2
92359.9
92595.1
92059.8
92239.2
91390.8
91532.8
90174
87371.8
88849.4
88627.8
89612.5
89372.5
90029.6
89716.9
90161.1
89710
90026.1
89350.6
89602.4
88587.4
88824.4
87297.4
91766.3
92526.6
92295.2
92847.9
92625.8
93036.5
92780.3
93098.4
92774.7
93039.7
92607.3
92853.4
92258.9
92530
91702.8
93241.2
92723.4
92592.4
92411.5
92287.8
92289.3
92170.8
92261.5
92168
92306.1
92279.1
92449.5
92574.7
92795.5
93235.9
96861.1
95830
95649.4
95164.1
95023.4
94823.1
94756.3
94721.8
94762.9
94835.8
95045.4
95189.9
95693
95868.3
96960.9
93012.4
93087
93062.1
93091.8
93061.5
93084.2
93051.8
93080.5
93050.8
93085.7
93058.2
93093
93055.8
93084.5
93003.6
95121.5
95039.7
94999.9
94906.7
94870.7
94811.1
94798.2
94778.8
94800.6
94815.5
94877.6
94914.6
95010.3
95049.7
95134.4
93518.2
93521.8
93520.3
93523.5
93520.1
93523.9
93519.2
93523.9
93519.1
93524
93519.6
93523.5
93519.5
93521.6
93517.8
94620.4
94613.3
94606.4
94592.6
94585.7
94574.3
94572.2
94567.6
94572.8
94575.4
94587.3
94594.4
94608.4
94615.1
94622.3
93782.7
93782.7
93782.7
93782.5
93782.1
93782.1
93781.6
93781.9
93781.7
93782.2
93782.3
93782.8
93783
93783.2
93783.3
94409
94407.9
94406.5
94404
94402.5
94400.2
94399.7
94398.7
94399.8
94400.3
94402.7
94404.2
94406.7
94408
94409
93924.8
93924.7
93924.5
93924.1
93923.8
93923.3
93923.2
93923
93923.3
93923.5
93924
93924.4
93924.9
93925.2
93925.4
94305.3
94304.9
94304.3
94303.4
94302.8
94301.9
94301.6
94301.3
94301.6
94301.9
94302.7
94303.3
94304.2
94304.7
94305.1
93996
93995.9
93995.8
93995.5
93995.3
93995
93994.9
93994.8
93994.9
93995.1
93995.5
93995.8
93996.2
93996.4
93996.5
94256.5
94256.3
94256.1
94255.8
94255.5
94255.1
94255
94254.8
94254.9
94255.1
94255.4
94255.7
94256
94256.2
94256.3
94024.9
94025.1
94025.3
94025.4
94025.5
94025.5
94025.6
94025.7
94025.7
94025.7
94025.8
94025.8
94025.8
94025.7
94025.6
SCALARS density float 1
LOOKUP_TABLE default
1.21459
1.21459
1.21459
1.21459
1.21459
1.21459
1.21459
1.21459
1.21459
1.21459
1.21459
1.21459
1.21459
1.21459
1.21459
1.21212
1.21212
1.21212
1.21212
1.21213
1.21213
1.21213
1.21213
1.21213
1.21213
1.21213
1.21212
1.21212
1.21212
1.21212
1.21513
1.21514
1.21514
1.21514
1.21515
1.21515
1.21516
1.21516
1.21516
1.21515
1.21515
1.21515
1.21514
1.21514
1.21514
1.21148
1.21148
1.21149
1.21149
1.21149
1.21149
1.2115
1.21149
1.2115
1.21149
1.21149
1.21149
1.21148
1.21148
1.21148
1.21585
1.21585
1.21586
1.21586
1.21586
1.21586
1.21586
1.21586
1.21586
1.21586
1.21586
1.21586
1.21586
1.21585
1.21585
1.21071
1.2107
1.2107
1.21068
1.21069
1.21067
1.21068
1.21066
1.21068
1.21067
1.21069
1.21068
1.2107
1.21069
1.2107
1.21681
1.2168
1.21679
1.21677
1.21677
1.21674
1.21674
1.21673
1.21674
1.21674
1.21676
1.21677
1.21679
1.2168
1.21681
1.20985
1.20978
1.20978
1.20965
1.20966
1.20953
1.20957
1.20948
1.20957
1.20952
1.20965
1.20963
1.20976
1.20976
1.20983
1.21818
1.21808
1.21804
1.21789
1.21785
1.21771
1.21771
1.21763
1.21771
1.2177
1.21784
1.21788
1.21804
1.21807
1.21817
1.20982
1.20921
1.2091
1.20832
1.20826
1.20768
1.20776
1.20745
1.20775
1.20766
1.20823
1.20829
1.20906
1.20916
1.20977
1.22089
1.21981
1.21964
1.21877
1.21855
1.21795
1.21793
1.21764
1.21793
1.21793
1.21855
1.21874
1.21962
1.21976
1.22088
1.21871
1.21074
1.20984
1.20555
1.20486
1.20284
1.20271
1.202
1.20269
1.2028
1.20479
1.20546
1.20971
1.21061
1.21853
1.22569
1.22089
1.21786
1.21579
1.21475
1.21373
1.21345
1.21314
1.21345
1.21368
1.21475
1.21569
1.21788
1.22063
1.22569
1.16443
1.17507
1.17118
1.17779
1.17588
1.18
1.17819
1.18078
1.17819
1.18005
1.17588
1.1779
1.17116
1.17545
1.165
1.17547
1.18818
1.18667
1.19424
1.19259
1.19743
1.19524
1.19841
1.19521
1.19746
1.19249
1.1943
1.1865
1.18853
1.17567
1.14719
1.16161
1.15949
1.16875
1.16651
1.17272
1.16983
1.17398
1.16977
1.17269
1.1663
1.16863
1.15914
1.16162
1.14701
1.18884
1.19645
1.19459
1.19968
1.19773
1.20148
1.1992
1.20207
1.19915
1.20151
1.19755
1.19971
1.19428
1.19673
1.18918
1.20181
1.19784
1.19694
1.19507
1.19393
1.19388
1.19286
1.19364
1.19284
1.19404
1.19385
1.19538
1.1968
1.19895
1.20309
1.2329
1.22537
1.22461
1.22043
1.21921
1.21745
1.21691
1.21659
1.21697
1.21756
1.21939
1.22059
1.22504
1.22621
1.23505
1.19883
1.20035
1.20087
1.20136
1.20111
1.20133
1.20109
1.20135
1.20108
1.20134
1.20104
1.2013
1.20088
1.20086
1.19983
1.21829
1.21825
1.21863
1.21807
1.21778
1.21726
1.21718
1.21702
1.21721
1.21729
1.21779
1.21807
1.21883
1.21891
1.21947
1.20373
1.20436
1.20502
1.20537
1.20539
1.20544
1.20542
1.20548
1.20542
1.20542
1.20533
1.2053
1.20514
1.20493
1.20472
1.21389
1.21437
1.21497
1.21519
1.2152
1.2151
1.21511
1.21508
1.21511
1.21509
1.21515
1.21515
1.21514
1.21499
1.21488
1.20626
1.20676
1.20738
1.20775
1.20784
1.20785
1.20786
1.20787
1.20786
1.20782
1.20777
1.20771
1.20757
1.20736
1.20721
1.21203
1.21248
1.21307
1.21342
1.21353
1.21352
1.21352
1.21352
1.21351
1.21348
1.21346
1.21339
1.21327
1.21309
1.21295
1.20766
1.2081
1.20867
1.20905
1.20919
1.2092
1.2092
1.2092
1.20919
1.20916
1.20912
1.20904
1.20889
1.2087
1.20857
1.21107
1.21147
1.21202
1.2124
1.21255
1.21256
1.21255
1.21255
1.21254
1.21251
1.21247
1.21239
1.21225
1.21207
1.21194
1.20853
1.20892
1.20945
1.20985
1.21002
1.21005
1.21004
1.21004
1.21003
1.21
1.20995
1.20986
1.20971
1.20953
1.2094
1.21028
1.21065
1.21115
1.21154
1.21172
1.21175
1.21174
1.21173
1.21172
1.2117
1.21165
1.21156
1.21141
1.21124
1.21112
1.20965
1.21001
1.21051
1.2109
1.2111
1.21114
1.21113
1.21112
1.21111
1.21108
1.21103
1.21093
1.21078
1.21061
1.21049
SCALARS u-velocity float 1
LOOKUP_TABLE default
99.5964
99.5972
99.5982
99.5997
99.6007
99.602
99.6024
99.6031
99.6026
99.6026
99.6015
99.6008
99.5994
99.5986
99.5979
98.7386
98.7383
98.7378
98.7374
98.7371
98.7368
98.7367
98.7368
98.7369
98.7371
98.7374
98.7379
98.7384
98.7389
98.7393
99.7003
99.7021
99.704
99.7073
99.7086
99.7113
99.7114
99.713
99.7119
99.7122
99.71
99.709
99.7061
99.7044
99.7027
98.6103
98.6079
98.6045
98.6012
98.5988
98.5972
98.5964
98.5962
98.5965
98.5975
98.5992
98.6016
98.6049
98.6082
98.6105
99.842
99.8507
99.8595
99.8735
99.8795
99.8902
99.8908
99.8966
99.8918
99.8921
99.8823
99.8771
99.864
99.8558
99.8475
98.429
98.4184
98.4049
98.3954
98.3896
98.3882
98.3866
98.3878
98.3869
98.3888
98.3903
98.3962
98.4053
98.4185
98.4287
99.969
100.016
100.057
100.118
100.144
100.188
100.192
100.213
100.194
100.192
100.15
100.126
100.068
100.028
99.9835
98.1782
98.1306
98.093
98.0886
98.092
98.1142
98.12
98.135
98.1212
98.117
98.0952
98.0933
98.0958
98.1315
98.1757
99.7844
100.075
100.23
100.494
100.601
100.773
100.799
100.865
100.804
100.781
100.616
100.511
100.255
100.107
99.8272
97.4449
97.336
97.4524
97.6624
97.8106
98.0328
98.1176
98.2106
98.1231
98.0457
97.824
97.6858
97.4714
97.3498
97.4284
97.809
99.6643
100.014
101.225
101.724
102.273
102.459
102.595
102.468
102.289
101.754
101.259
100.058
99.724
97.9487
89.6061
94.6043
96.4235
98.2278
99.247
100.395
100.811
101.123
100.826
100.433
99.2881
98.3003
96.5009
94.7576
89.5274
90.0024
94.2063
101.737
104.028
106.533
106.986
108.03
107.779
108.046
107.018
106.588
104.121
101.866
94.2755
90.2831
123.813
120.3
120.883
119.447
119.758
118.284
118.684
117.82
118.684
118.258
119.765
119.375
120.831
120.353
124.985
134.83
130.577
127.565
124.975
123.93
122.166
121.981
121.206
121.998
122.185
123.977
124.975
127.636
131.038
136
137
133.26
130.023
127.581
126.38
124.925
124.551
123.996
124.582
124.978
126.468
127.674
130.263
133.893
138.146
117.888
120.317
118.2
118.468
117.438
117.546
116.817
117.061
116.839
117.547
117.483
118.419
118.336
120.852
120.137
89.3308
101.722
102.681
106.318
106.58
108.686
108.3
109.248
108.266
108.616
106.435
106.029
102.394
102.321
92.1834
79.2928
90.7306
95.7019
99.1549
100.365
102.137
102.297
102.955
102.254
102.08
100.147
98.8839
95.4814
91.7904
81.712
96.1408
98.7955
102.031
103.028
103.461
103.955
104.03
104.264
104.026
103.939
103.345
102.862
102.169
100.072
98.6677
91.1818
93.9159
97.0405
98.597
99.1578
99.6876
99.843
100.058
99.8346
99.6472
98.9962
98.4069
97.2288
95.2223
93.5925
95.9996
98.0358
100.586
101.807
102.191
102.346
102.44
102.511
102.444
102.313
102.055
101.675
100.901
99.3884
98.3219
93.5187
95.4683
97.8922
99.2754
99.7341
99.895
99.98
100.047
99.9794
99.8431
99.5778
99.1542
98.2622
96.8448
95.7882
95.6707
97.4401
99.6741
101.045
101.523
101.625
101.678
101.711
101.676
101.564
101.368
100.959
100.102
98.8206
97.8606
94.4233
96.0985
98.2532
99.6803
100.222
100.339
100.375
100.399
100.365
100.263
100.061
99.6172
98.7271
97.493
96.5734
95.4944
97.0597
99.1148
100.551
101.139
101.263
101.284
101.293
101.266
101.176
100.977
100.515
99.6249
98.4486
97.5837
94.9393
96.4261
98.4178
99.8754
100.515
100.661
100.671
100.671
100.645
100.561
100.353
99.8646
98.9626
97.8199
96.9932
95.4288
96.8362
98.757
100.217
100.898
101.064
101.069
101.058
101.034
100.954
100.738
100.231
99.3285
98.2234
97.4366
95.2894
96.6326
98.497
99.9622
100.682
100.872
100.873
100.854
100.829
100.751
100.525
99.9985
99.0941
98.0178
97.2635
95.4195
96.7033
98.5117
99.9732
100.725
100.939
100.941
100.915
100.888
100.81
100.573
100.032
99.1296
98.0823
97.3581
SCALARS v-velocity float 1
LOOKUP_TABLE default
-0.000272336
-0.000478772
-0.000814898
-0.000757456
-0.000791341
-0.000579539
-0.000438463
-0.000215794
1.6936e-05
0.000182358
0.000436659
0.000459689
0.000588451
0.000337571
0.000223363
0.000836547
0.00163245
0.0027486
0.00276875
0.00285083
0.00213818
0.00141709
0.000402082
-0.000631314
-0.00139935
-0.00219187
-0.00221698
-0.00232963
-0.0013715
-0.000746193
-0.00089119
-0.00211296
-0.00299645
-0.00308401
-0.00277677
-0.002056
-0.00115184
-0.000132588
0.000896979
0.00180368
0.00254301
0.00287248
0.00282029
0.00199914
0.000845915
0.00290219
0.00505393
0.00859678
0.00804935
0.00829101
0.00596356
0.00405268
0.00125786
-0.00159978
-0.00364355
-0.00621304
-0.00628989
-0.00723958
-0.00420073
-0.00259944
-0.00318069
-0.00775452
-0.0100948
-0.00998949
-0.00834792
-0.00601363
-0.00303836
-2.99243e-05
0.00301234
0.00591073
0.00821201
0.00977757
0.00982486
0.00755446
0.00306695
0.0138809
0.0246765
0.0389805
0.0368754
0.0360805
0.0260263
0.016117
0.0033346
-0.00964905
-0.0198263
-0.0304925
-0.0320377
-0.0351076
-0.0221761
-0.012937
-0.00693034
-0.0132826
-0.0100062
-0.00591606
6.20402e-05
0.0014868
0.00262813
0.000717559
-0.0009979
-0.000399133
0.000774697
0.0061216
0.0095164
0.0127139
0.00639303
0.0725142
0.11712
0.171697
0.167814
0.155128
0.114361
0.0645824
0.00820881
-0.048883
-0.0988548
-0.141105
-0.155253
-0.160947
-0.109569
-0.0691528
0.0144914
0.0929959
0.164377
0.180289
0.186429
0.142709
0.0848535
0.00474811
-0.0740535
-0.134854
-0.179279
-0.176304
-0.164025
-0.0950895
-0.0185344
0.37663
0.508303
0.69215
0.731186
0.601803
0.467764
0.23838
0.0182387
-0.204868
-0.432609
-0.570472
-0.701707
-0.666329
-0.485904
-0.360362
1.11435
1.71998
2.02052
1.91388
1.6758
1.20008
0.644407
0.021169
-0.59425
-1.16187
-1.63482
-1.88705
-1.99715
-1.71696
-1.14528
-0.314354
3.35836
2.50768
3.06987
2.02484
1.69665
0.765178
0.0353695
-0.705573
-1.62891
-1.9719
-3.01207
-2.47874
-3.33733
0.352143
23.1017
19.9524
15.9948
12.9229
9.06316
6.13765
2.95686
0.0665383
-2.79617
-6.00168
-8.88166
-12.7859
-15.7698
-19.7796
-22.8729
25.1276
16.0656
13.1686
8.69224
6.62562
3.8444
2.04804
0.0752337
-1.90698
-3.6909
-6.48498
-8.52275
-13.0011
-15.8672
-25.297
11.4081
7.1006
6.75539
4.16031
3.72861
2.00386
1.21587
0.0685457
-1.13157
-1.87262
-3.6719
-4.04061
-6.75373
-7.06441
-11.6399
-8.23274
-8.56796
-4.6964
-4.81196
-2.3894
-2.10632
-0.685191
0.126031
0.864334
2.36041
2.5729
5.07757
4.899
8.85627
8.46341
-20.86
-18.1309
-12.1368
-10.0836
-6.22858
-4.40789
-1.84601
0.155814
2.06889
4.74284
6.48461
10.4982
12.5117
18.7963
21.5354
-23.3208
-18.4081
-14.4346
-10.8752
-7.84764
-4.97659
-2.41891
0.188217
2.61545
5.37638
8.04696
11.3627
14.6745
19.1745
23.9035
-2.47021
-0.486859
-2.21472
-1.30847
-1.73373
-0.899561
-0.613266
0.044243
0.636984
0.973815
1.73673
1.35693
2.18543
0.42144
2.3311
-1.91103
-2.21849
-2.699
-2.20614
-2.03933
-1.28674
-0.706689
0.0565054
0.772966
1.38894
2.09963
2.29261
2.73586
2.17718
1.88845
-0.199336
-0.273048
-0.373982
-0.208312
-0.338407
-0.169806
-0.131386
0.0106096
0.136626
0.186976
0.349521
0.23004
0.374257
0.227369
0.173475
-0.177933
-0.368014
-0.43612
-0.346468
-0.373126
-0.245583
-0.145722
0.0118763
0.160448
0.267064
0.393526
0.368156
0.431966
0.323565
0.154062
-0.0401744
-0.108271
-0.080458
-0.0265296
-0.0496843
-0.0332957
-0.0273166
0.0022265
0.0291555
0.0403389
0.0622741
0.0404941
0.0750331
0.0769882
0.0221546
-0.0460017
-0.11167
-0.093685
-0.0503597
-0.0522627
-0.0425604
-0.0292802
0.000364967
0.0292802
0.0472238
0.0620865
0.0577321
0.0808031
0.0786252
0.0279987
-0.0268456
-0.0612029
-0.0338534
0.00227553
0.00490392
-0.00230798
-0.00613057
-0.000362457
0.00613484
0.00733632
0.0057632
0.00563002
0.0243736
0.0362517
0.0130928
-0.0281729
-0.0613928
-0.0410683
-0.00778621
0.000883286
-0.00454723
-0.00752402
-0.00227793
0.00433496
0.00645419
0.00566002
0.0098628
0.0266756
0.0352079
0.0146407
-0.021697
-0.0450383
-0.0257521
0.00395231
0.0135083
0.00637755
-0.000655272
-0.00130067
-0.0001523
-0.00199318
-0.00505497
-0.00031971
0.0146337
0.0240209
0.0108263
-0.0215996
-0.0454295
-0.0306387
-0.00311042
0.00871837
0.00418125
-0.0020101
-0.00279519
-0.0015686
-0.00266866
-0.00399829
0.00232919
0.0163659
0.0236948
0.0109119
-0.0179919
-0.037366
-0.0242791
0.000587943
0.012484
0.00854809
0.00126077
-0.00191439
-0.0029368
-0.00524863
-0.00658398
-0.000333821
0.0123165
0.019009
0.00900329
-0.0185815
-0.0395337
-0.0289079
-0.00492146
0.00840166
0.00648695
0.000210091
-0.00273361
-0.00346263
-0.0049109
-0.00481553
0.00240854
0.0147156
0.0201549
0.00938568
SCALARS Mach float 1
LOOKUP_TABLE default
30.0597
30.0601
30.0608
30.0617
30.0623
30.0631
30.0633
30.0638
30.0635
30.0635
30.0628
30.0623
30.0615
30.061
30.0606
29.5559
29.5557
29.5554
29.5552
29.555
29.5548
29.5548
29.5548
29.5549
29.555
29.5552
29.5555
29.5558
29.5561
29.5563
30.1194
30.1205
30.1217
30.1236
30.1245
30.1261
30.1261
30.1271
30.1264
30.1266
30.1253
30.1247
30.1229
30.1219
30.1209
29.4822
29.4808
29.4788
29.4769
29.4754
29.4745
29.474
29.4739
29.474
29.4747
29.4756
29.4771
29.479
29.481
29.4824
30.2016
30.2068
30.2122
30.2206
30.2242
30.2307
30.2311
30.2346
30.2317
30.2319
30.226
30.2228
30.2149
30.2099
30.2049
29.378
29.3717
29.3636
29.3581
29.3546
29.3539
29.3529
29.3537
29.3531
29.3543
29.3551
29.3586
29.3639
29.3718
29.3778
30.2734
30.3017
30.3268
30.364
30.3796
30.4063
30.4089
30.4217
30.4103
30.409
30.3836
30.3691
30.3333
30.3095
30.2822
29.2336
29.2057
29.1833
29.1814
29.1834
29.1972
29.2005
29.2099
29.2012
29.199
29.1853
29.1843
29.1851
29.2063
29.2321
30.1527
30.329
30.424
30.5851
30.6511
30.7561
30.7723
30.8129
30.7752
30.7617
30.6601
30.5957
30.4388
30.3487
30.1787
28.805
28.7439
28.813
28.9407
29.028
29.1623
29.2118
29.2685
29.215
29.17
29.036
28.9546
28.8244
28.7523
28.7955
28.9455
30.0681
30.2867
31.0304
31.3369
31.6762
31.7889
31.8733
31.7942
31.6857
31.3554
31.0509
30.3136
30.1044
29.0287
24.3601
27.208
28.2439
29.3331
29.9279
30.6271
30.874
31.0666
30.8834
30.6499
29.9523
29.3754
28.2892
27.2963
24.318
26.0602
28.0272
32.0861
33.2672
34.618
34.7864
35.3815
35.1938
35.3894
34.8023
34.6441
33.3162
32.1441
28.0465
26.181
48.756
44.9305
45.1229
43.7261
43.8709
42.6845
42.9541
42.3006
42.9526
42.6623
43.8705
43.6642
45.0709
44.951
49.6875
55.858
52.0761
49.6919
47.5519
46.7595
45.3726
45.2422
44.6416
45.2543
45.3849
46.7944
47.5484
49.748
52.4457
56.8574
57.6862
54.4915
51.7479
49.7507
48.7852
47.6169
47.3442
46.8895
47.3693
47.6614
48.8576
49.8317
51.949
55.0317
58.6844
43.5999
44.9939
42.9286
42.9457
42.0323
42.0233
41.4741
41.6153
41.4924
42.0332
42.076
42.9354
43.0574
45.4654
45.3377
25.8634
32.4616
32.6708
34.7142
34.7181
35.9828
35.6785
36.2818
35.6596
35.9483
34.634
34.5579
32.5147
32.9221
27.5334
18.9764
24.8793
27.712
29.7618
30.504
31.5941
31.696
32.1053
31.6692
31.5584
30.3701
29.5977
27.5826
25.4673
20.156
28.0563
29.6374
31.6277
32.2421
32.5133
32.8162
32.8621
33.0073
32.8605
32.807
32.4411
32.139
31.7147
30.4139
29.5635
25.1473
26.6891
28.5051
29.4342
29.7723
30.0941
30.1891
30.3204
30.1839
30.0694
29.6745
29.3196
28.6166
27.4427
26.5056
27.9442
29.1496
30.6944
31.4485
31.6869
31.7827
31.8416
31.8858
31.8444
31.7621
31.6018
31.3659
30.8887
29.9666
29.3247
26.4746
27.5966
29.0238
29.8547
30.1325
30.2304
30.2822
30.323
30.2818
30.1987
30.0373
29.7811
29.2454
28.405
27.7863
27.743
28.7847
30.1274
30.9668
31.2615
31.3246
31.3575
31.3777
31.3558
31.2868
31.1652
30.913
30.3891
29.6133
29.0389
26.9987
27.9707
29.2463
30.1069
30.4368
30.5076
30.53
30.5445
30.5239
30.4612
30.3376
30.0684
29.5316
28.7955
28.253
27.6359
28.5545
29.7836
30.658
31.0194
31.0957
31.1083
31.1143
31.0976
31.0415
30.9192
30.6359
30.0937
29.3849
28.8692
27.2989
28.1653
29.3475
30.2282
30.6187
30.7076
30.7141
30.7139
30.6982
30.6461
30.5189
30.2215
29.6762
28.9926
28.5031
27.5974
28.4221
29.5673
30.4532
30.8703
30.9728
30.9754
30.969
30.9539
30.9044
30.7717
30.4614
29.9136
29.2494
28.7813
27.4987
28.2837
29.3919
30.2777
30.7175
30.834
30.8345
30.8228
30.8076
30.7595
30.621
30.2999
29.7524
29.1076
28.6599
27.6006
28.3524
29.4288
30.3135
30.7734
30.905
30.9061
30.89
30.8736
30.825
30.6798
30.3491
29.8024
29.1739
28.7434
