# vtk DataFile Version 3.0
Structured Grid Example
ASCII
DATASET STRUCTURED_GRID
DIMENSIONS 15 30 1
POINTS 450 FLOAT
0.0833327 0.0333334 0
0.0833313 0.1 0
0.0833301 0.166667 0
0.083329 0.233333 0
0.0833281 0.3 0
0.0833274 0.366667 0
0.083327 0.433333 0
0.0833268 0.5 0
0.083327 0.566667 0
0.0833274 0.633333 0
0.0833281 0.7 0
0.083329 0.766667 0
0.0833301 0.833333 0
0.0833313 0.9 0
0.0833327 0.966667 0
0.249998 0.0333334 0
0.249993 0.1 0
0.249989 0.166667 0
0.249986 0.233334 0
0.249983 0.3 0
0.24998 0.366667 0
0.249979 0.433333 0
0.249979 0.5 0
0.249979 0.566667 0
0.24998 0.633333 0
0.249983 0.7 0
0.249986 0.766666 0
0.249989 0.833333 0
0.249993 0.9 0
0.249998 0.966667 0
0.416662 0.0333336 0
0.416654 0.100001 0
0.416646 0.166668 0
0.416639 0.233334 0
0.416633 0.300001 0
0.416628 0.366667 0
0.416626 0.433334 0
0.416625 0.5 0
0.416626 0.566666 0
0.416628 0.633333 0
0.416633 0.699999 0
0.416639 0.766666 0
0.416646 0.833332 0
0.416654 0.899999 0
0.416662 0.966666 0
0.583326 0.033334 0
0.58331 0.100002 0
0.583296 0.166669 0
0.583284 0.233336 0
0.583273 0.300003 0
0.583266 0.366669 0
0.583261 0.433335 0
0.583259 0.5 0
0.583261 0.566665 0
0.583266 0.633331 0
0.583273 0.699997 0
0.583284 0.766664 0
0.583296 0.833331 0
0.58331 0.899998 0
0.583326 0.966666 0
0.749987 0.0333351 0
0.749961 0.100005 0
0.749937 0.166674 0
0.749915 0.233342 0
0.749898 0.300008 0
0.749884 0.366673 0
0.749876 0.433337 0
0.749874 0.5 0
0.749876 0.566663 0
0.749884 0.633327 0
0.749898 0.699992 0
0.749915 0.766658 0
0.749937 0.833326 0
0.749961 0.899995 0
0.749987 0.966665 0
0.916644 0.033338 0
0.916601 0.100013 0
0.91656 0.166686 0
0.916524 0.233356 0
0.916494 0.300021 0
0.916472 0.366683 0
0.916458 0.433342 0
0.916454 0.5 0
0.916458 0.566658 0
0.916472 0.633317 0
0.916494 0.699979 0
0.916524 0.766644 0
0.91656 0.833314 0
0.916601 0.899987 0
0.916644 0.966662 0
1.0833 0.0333461 0
1.08322 0.100036 0
1.08315 0.166719 0
1.08309 0.233394 0
1.08304 0.300058 0
1.08301 0.366712 0
1.08298 0.433358 0
1.08298 0.5 0
1.08298 0.566642 0
1.08301 0.633288 0
1.08304 0.699942 0
1.08309 0.766606 0
1.08315 0.833281 0
1.08322 0.899964 0
1.0833 0.966654 0
1.24994 0.0333682 0
1.24981 0.100098 0
1.2497 0.16681 0
1.24959 0.233497 0
1.24951 0.300156 0
1.24945 0.366788 0
1.24942 0.433399 0
1.2494 0.5 0
1.24942 0.566601 0
1.24945 0.633212 0
1.24951 0.699844 0
1.24959 0.766503 0
1.2497 0.83319 0
1.24981 0.899902 0
1.24994 0.966632 0
1.41656 0.0334298 0
1.41634 0.10027 0
1.41615 0.16706 0
1.41598 0.233778 0
1.41585 0.300419 0
1.41575 0.36699 0
1.41569 0.433509 0
1.41567 0.5 0
1.41569 0.566491 0
1.41575 0.63301 0
1.41585 0.699581 0
1.41598 0.766222 0
1.41615 0.83294 0
1.41634 0.89973 0
1.41656 0.96657 0
1.58313 0.0336075 0
1.58275 0.10076 0
1.58242 0.167751 0
1.58215 0.234537 0
1.58195 0.301115 0
1.58181 0.367517 0
1.58173 0.433791 0
1.58171 0.5 0
1.58173 0.566209 0
1.58181 0.632483 0
1.58195 0.698885 0
1.58215 0.765463 0
1.58242 0.832249 0
1.58275 0.89924 0
1.58313 0.966392 0
1.74959 0.0341677 0
1.74885 0.102235 0
1.74829 0.169714 0
1.74791 0.236575 0
1.74766 0.302905 0
1.74751 0.368829 0
1.74744 0.434482 0
1.74741 0.5 0
1.74744 0.565518 0
1.74751 0.631171 0
1.74766 0.697095 0
1.74791 0.763425 0
1.74829 0.830286 0
1.74885 0.897765 0
1.74959 0.965832 0
1.91555 0.0363295 0
1.91388 0.107253 0
1.91312 0.175401 0
1.91283 0.241837 0
1.91276 0.307169 0
1.91277 0.371793 0
1.9128 0.435995 0
1.91281 0.5 0
1.9128 0.564005 0
1.91277 0.628207 0
1.91276 0.692831 0
1.91283 0.758163 0
1.91312 0.824599 0
1.91388 0.892747 0
1.91555 0.963671 0
2.07838 0.0591504 0
2.07417 0.125973 0
2.07554 0.190391 0
2.07663 0.253364 0
2.07743 0.315525 0
2.07798 0.377223 0
2.07829 0.438667 0
2.0784 0.5 0
2.07829 0.561333 0
2.07798 0.622777 0
2.07743 0.684475 0
2.07663 0.746636 0
2.07554 0.809609 0
2.07417 0.874027 0
2.07838 0.94085 0
2.24384 0.096456 0
2.23911 0.153168 0
2.24152 0.210396 0
2.24318 0.267878 0
2.24431 0.325632 0
2.24503 0.383617 0
2.24544 0.441767 0
2.24557 0.5 0
2.24544 0.558233 0
2.24503 0.616383 0
2.24431 0.674368 0
2.24318 0.732122 0
2.24152 0.789604 0
2.23911 0.846832 0
2.24384 0.903544 0
2.41462 0.118677 0
2.41292 0.170231 0
2.41356 0.223198 0
2.41406 0.277268 0
2.41444 0.332207 0
2.4147 0.387788 0
2.41485 0.44379 0
2.4149 0.5 0
2.41485 0.55621 0
2.4147 0.612212 0
2.41444 0.667793 0
2.41406 0.722732 0
2.41356 0.776802 0
2.41292 0.829769 0
2.41462 0.881323 0
2.58538 0.118677 0
2.58708 0.170231 0
2.58644 0.223198 0
2.58594 0.277268 0
2.58556 0.332207 0
2.5853 0.387788 0
2.58515 0.44379 0
2.5851 0.5 0
2.58515 0.55621 0
2.5853 0.612212 0
2.58556 0.667793 0
2.58594 0.722732 0
2.58644 0.776802 0
2.58708 0.829769 0
2.58538 0.881323 0
2.75616 0.096456 0
2.76089 0.153168 0
2.75848 0.210396 0
2.75682 0.267878 0
2.75569 0.325632 0
2.75497 0.383617 0
2.75456 0.441767 0
2.75443 0.5 0
2.75456 0.558233 0
2.75497 0.616383 0
2.75569 0.674368 0
2.75682 0.732122 0
2.75848 0.789604 0
2.76089 0.846832 0
2.75616 0.903544 0
2.92162 0.0591504 0
2.92583 0.125973 0
2.92446 0.190391 0
2.92337 0.253364 0
2.92257 0.315525 0
2.92202 0.377223 0
2.92171 0.438667 0
2.9216 0.5 0
2.92171 0.561333 0
2.92202 0.622777 0
2.92257 0.684475 0
2.92337 0.746636 0
2.92446 0.809609 0
2.92583 0.874027 0
2.92162 0.94085 0
3.08445 0.0363295 0
3.08612 0.107253 0
3.08688 0.175401 0
3.08717 0.241837 0
3.08724 0.307169 0
3.08723 0.371793 0
3.0872 0.435995 0
3.08719 0.5 0
3.0872 0.564005 0
3.08723 0.628207 0
3.08724 0.692831 0
3.08717 0.758163 0
3.08688 0.824599 0
3.08612 0.892747 0
3.08445 0.963671 0
3.25041 0.0341677 0
3.25115 0.102235 0
3.25171 0.169714 0
3.25209 0.236575 0
3.25234 0.302905 0
3.25249 0.368829 0
3.25256 0.434482 0
3.25259 0.5 0
3.25256 0.565518 0
3.25249 0.631171 0
3.25234 0.697095 0
3.25209 0.763425 0
3.25171 0.830286 0
3.25115 0.897765 0
3.25041 0.965832 0
3.41687 0.0336075 0
3.41725 0.10076 0
3.41758 0.167751 0
3.41785 0.234537 0
3.41805 0.301115 0
3.41819 0.367517 0
3.41827 0.433791 0
3.41829 0.5 0
3.41827 0.566209 0
3.41819 0.632483 0
3.41805 0.698885 0
3.41785 0.765463 0
3.41758 0.832249 0
3.41725 0.89924 0
3.41687 0.966392 0
3.58344 0.0334298 0
3.58366 0.10027 0
3.58385 0.16706 0
3.58402 0.233778 0
3.58415 0.300419 0
3.58425 0.36699 0
3.58431 0.433509 0
3.58433 0.5 0
3.58431 0.566491 0
3.58425 0.63301 0
3.58415 0.699581 0
3.58402 0.766222 0
3.58385 0.83294 0
3.58366 0.89973 0
3.58344 0.96657 0
3.75006 0.0333682 0
3.75019 0.100098 0
3.7503 0.16681 0
3.75041 0.233497 0
3.75049 0.300156 0
3.75055 0.366788 0
3.75058 0.433399 0
3.7506 0.5 0
3.75058 0.566601 0
3.75055 0.633212 0
3.75049 0.699844 0
3.75041 0.766503 0
3.7503 0.83319 0
3.75019 0.899902 0
3.75006 0.966632 0
3.9167 0.0333461 0
3.91678 0.100036 0
3.91685 0.166719 0
3.91691 0.233394 0
3.91696 0.300058 0
3.91699 0.366712 0
3.91702 0.433358 0
3.91702 0.5 0
3.91702 0.566642 0
3.91699 0.633288 0
3.91696 0.699942 0
3.91691 0.766606 0
3.91685 0.833281 0
3.91678 0.899964 0
3.9167 0.966654 0
4.08336 0.033338 0
4.0834 0.100013 0
4.08344 0.166686 0
4.08348 0.233356 0
4.08351 0.300021 0
4.08353 0.366683 0
4.08354 0.433342 0
4.08355 0.5 0
4.08354 0.566658 0
4.08353 0.633317 0
4.08351 0.699979 0
4.08348 0.766644 0
4.08344 0.833314 0
4.0834 0.899987 0
4.08336 0.966662 0
4.25001 0.0333351 0
4.25004 0.100005 0
4.25006 0.166674 0
4.25008 0.233342 0
4.2501 0.300008 0
4.25012 0.366673 0
4.25012 0.433337 0
4.25013 0.5 0
4.25012 0.566663 0
4.25012 0.633327 0
4.2501 0.699992 0
4.25008 0.766658 0
4.25006 0.833326 0
4.25004 0.899995 0
4.25001 0.966665 0
4.41667 0.033334 0
4.41669 0.100002 0
4.4167 0.166669 0
4.41672 0.233336 0
4.41673 0.300003 0
4.41673 0.366669 0
4.41674 0.433335 0
4.41674 0.5 0
4.41674 0.566665 0
4.41673 0.633331 0
4.41673 0.699997 0
4.41672 0.766664 0
4.4167 0.833331 0
4.41669 0.899998 0
4.41667 0.966666 0
4.58334 0.0333336 0
4.58335 0.100001 0
4.58335 0.166668 0
4.58336 0.233334 0
4.58337 0.300001 0
4.58337 0.366667 0
4.58337 0.433334 0
4.58338 0.5 0
4.58337 0.566666 0
4.58337 0.633333 0
4.58337 0.699999 0
4.58336 0.766666 0
4.58335 0.833332 0
4.58335 0.899999 0
4.58334 0.966666 0
4.75 0.0333334 0
4.75001 0.1 0
4.75001 0.166667 0
4.75001 0.233334 0
4.75002 0.3 0
4.75002 0.366667 0
4.75002 0.433333 0
4.75002 0.5 0
4.75002 0.566667 0
4.75002 0.633333 0
4.75002 0.7 0
4.75001 0.766666 0
4.75001 0.833333 0
4.75001 0.9 0
4.75 0.966667 0
4.91667 0.0333334 0
4.91667 0.1 0
4.91667 0.166667 0
4.91667 0.233333 0
4.91667 0.3 0
4.91667 0.366667 0
4.91667 0.433333 0
4.91667 0.5 0
4.91667 0.566667 0
4.91667 0.633333 0
4.91667 0.7 0
4.91667 0.766667 0
4.91667 0.833333 0
4.91667 0.9 0
4.91667 0.966667 0
POINT_DATA 450
SCALARS pressure float 1
LOOKUP_TABLE default
94435.6
94442.5
94453.6
94469.3
94484.6
94498.7
94507.9
94511.2
94507.8
94498.6
94484.5
94469.1
94453.4
94442.3
94435.3
94138.8
94149.1
94171.3
94199.5
94227.8
94254.4
94270.4
94277.8
94270.3
94254.4
94227.8
94199.4
94171.2
94149
94138.7
94525.5
94523.5
94529.6
94533.3
94537.7
94543.3
94543.9
94547.4
94544
94543.4
94537.8
94533.5
94529.7
94523.7
94525.7
94195.7
94180.5
94166.8
94141.5
94118.4
94098.1
94082.1
94079.4
94082.2
94098.2
94118.5
94141.6
94166.9
94180.7
94195.9
94753.8
94723.8
94685
94625.9
94569
94518.7
94482.6
94473
94482.8
94519
94569.4
94626.3
94685.6
94724.3
94754.4
94266.4
94222.5
94159.9
94066.6
93979.5
93897.8
93845.7
93826.1
93845.7
93897.8
93979.7
94066.8
94160.1
94222.7
94266.7
94971.6
94923.1
94846.4
94737.9
94634.1
94538.1
94476.9
94453.6
94477.1
94538.4
94634.6
94738.4
94847.1
94923.8
94972.3
94201.8
94149.4
94071.9
93952.2
93850.6
93742
93686.8
93653.3
93686.7
93741.7
93850.1
93951.6
94071.2
94148.7
94201.1
95080
95035.4
94966.3
94864.6
94776.9
94684.6
94638
94609.1
94638.1
94684.5
94777.1
94864.5
94966.6
95035.4
95080.2
94034.9
93950.6
93901.5
93767.4
93709.9
93597.9
93579.3
93529.9
93578.4
93596.6
93707.6
93764.7
93897.9
93946.8
94030.8
95319
95174.9
95119.4
94992.2
94943.5
94855.7
94844.6
94805.8
94844.4
94854
94943
94989.1
95118.6
95171
95317.5
94551.1
93797
93759.5
93352.2
93312.5
93122
93123.9
93052.4
93121.7
93118.8
93305.6
93344.8
93747.4
93783.4
94533.4
96042.7
95411.7
95023.9
94756.4
94645.5
94536.5
94518.5
94482.9
94518.1
94531.1
94644.9
94743.9
95024.2
95387.7
96043.9
89077.5
90168.5
89799.5
90514.9
90331.9
90784.5
90604.9
90883.1
90604.7
90789.6
90331.5
90527.8
89799
90195.8
89069.9
90167.8
91484.7
91384.5
92221.1
92071.7
92606.2
92384.4
92727.1
92381.1
92609.5
92061.3
92228.7
91365.8
91498.7
90132.4
87333.7
88816.9
88603.3
89600.4
89371.4
90039.9
89733.6
90181.1
89726.8
90036.6
89349.7
89590.7
88563.3
88792.3
87259.5
91718.4
92487.2
92269.5
92838.9
92633.2
93058.7
92811.9
93133.8
92806.3
93062.1
92614.8
92844.7
92233.4
92490.9
91655.1
93168.9
92667.3
92558.4
92408
92311.5
92338.9
92235.6
92333.1
92232.8
92355.8
92302.9
92446.2
92540.9
92739.7
93163.9
96776.8
95761.7
95610.4
95163.5
95059.2
94893
94846.3
94821.2
94853
94905.8
95081.2
95189.5
95654.2
95800.3
96876.7
92948.8
93033.3
93032.3
93092.1
93092.4
93143.9
93128.5
93165.6
93127.5
93145.4
93089.1
93093.4
93026
93030.8
92939.8
95093.4
95014.1
94988.1
94909.4
94888.6
94844.3
94838.6
94824.9
94840.9
94848.6
94895.3
94917
94998.2
95023.6
95105.7
93536
93532.2
93529.5
93525.5
93516.3
93516.3
93505.8
93511.9
93505.5
93516.1
93515.3
93525
93528.1
93531.2
93534.8
94691.8
94666.8
94640.9
94595.2
94557.9
94520.4
94497.7
94489.3
94498.1
94521
94558.8
94596.2
94641.9
94667.7
94692.7
93900.1
93874.3
93839.8
93787.4
93736.3
93691.6
93658.9
93650.5
93658.7
93691.2
93735.7
93786.7
93839
93873.8
93899.8
94559.3
94528.1
94481.7
94414.1
94349
94289.7
94250
94236.7
94249.8
94289.3
94348.3
94413.3
94480.8
94527.2
94558.5
94084.3
94055.2
94008
93941.6
93876.5
93817.4
93778.2
93764.3
93778
93817
93876
93941
94007.4
94054.8
94084.1
94448.1
94423.9
94381.9
94324
94267.4
94215.1
94181.6
94168.5
94181.4
94214.6
94266.7
94323.2
94380.9
94423
94447.3
94094.7
94079.4
94050.6
94011.8
93973.7
93937.9
93915.9
93906.4
93915.9
93937.9
93973.6
94011.7
94050.5
94079.5
94094.8
94307.4
94299.9
94283.9
94263.3
94243.1
94223.6
94212.3
94206.6
94212.3
94223.5
94243
94263.2
94283.7
94299.6
94307.1
94028.8
94028.3
94025.8
94023.1
94020.4
94017.4
94016.5
94015.2
94016.6
94017.8
94020.9
94023.7
94026.5
94029.1
94029.6
SCALARS density float 1
LOOKUP_TABLE default
1.21423
1.2143
1.21441
1.21456
1.2147
1.21483
1.21492
1.21495
1.21492
1.21483
1.2147
1.21455
1.21441
1.2143
1.21423
1.2115
1.2116
1.2118
1.21206
1.21233
1.21257
1.21272
1.21279
1.21272
1.21257
1.21233
1.21206
1.2118
1.2116
1.2115
1.21506
1.21504
1.21509
1.21513
1.21517
1.21522
1.21523
1.21526
1.21523
1.21522
1.21517
1.21513
1.2151
1.21504
1.21506
1.21203
1.21189
1.21177
1.21153
1.21132
1.21114
1.21099
1.21097
1.21099
1.21114
1.21132
1.21154
1.21177
1.21189
1.21203
1.21715
1.21688
1.21652
1.21598
1.21546
1.215
1.21467
1.21458
1.21467
1.215
1.21546
1.21598
1.21653
1.21688
1.21716
1.21269
1.21229
1.21172
1.21086
1.21006
1.20931
1.20883
1.20865
1.20883
1.20931
1.21006
1.21086
1.21172
1.21229
1.2127
1.21913
1.21869
1.21799
1.21699
1.21604
1.21516
1.2146
1.21439
1.2146
1.21516
1.21605
1.217
1.21799
1.2187
1.21914
1.21216
1.21168
1.21097
1.20987
1.20893
1.20794
1.20743
1.20712
1.20743
1.20794
1.20893
1.20986
1.21096
1.21168
1.21215
1.22
1.2196
1.21898
1.21806
1.21727
1.21642
1.216
1.21573
1.216
1.21642
1.21727
1.21806
1.21898
1.2196
1.22
1.21098
1.2102
1.2097
1.20844
1.20789
1.20685
1.20667
1.20621
1.20666
1.20683
1.20786
1.20841
1.20967
1.21017
1.21094
1.22122
1.22012
1.21979
1.21878
1.21842
1.21767
1.21759
1.21724
1.21759
1.21765
1.21842
1.21876
1.21979
1.22008
1.22122
1.21848
1.21059
1.20973
1.20554
1.20497
1.20302
1.20298
1.20227
1.20296
1.20299
1.20489
1.20546
1.2096
1.21046
1.21832
1.22513
1.22044
1.21761
1.21579
1.21504
1.21424
1.21415
1.21388
1.21415
1.2142
1.21504
1.2157
1.21763
1.22018
1.22513
1.1639
1.17466
1.17091
1.17775
1.17604
1.18035
1.17866
1.18129
1.17866
1.1804
1.17604
1.17787
1.1709
1.17505
1.16448
1.17508
1.18786
1.18644
1.19414
1.1926
1.19756
1.19544
1.19863
1.19541
1.19759
1.1925
1.1942
1.18627
1.18821
1.17529
1.14683
1.1613
1.15926
1.16863
1.1665
1.17281
1.16998
1.17417
1.16992
1.17278
1.16629
1.16852
1.15891
1.16131
1.14665
1.18839
1.19608
1.19435
1.19959
1.19779
1.20169
1.19948
1.2024
1.19944
1.20172
1.19762
1.19962
1.19404
1.19637
1.18874
1.20114
1.19732
1.19663
1.19504
1.19415
1.19433
1.19346
1.1943
1.19344
1.19449
1.19407
1.19535
1.19649
1.19843
1.20243
1.23212
1.22474
1.22425
1.22042
1.21954
1.21809
1.21774
1.21751
1.2178
1.2182
1.21971
1.22058
1.22468
1.22558
1.23427
1.19825
1.19986
1.20059
1.20136
1.20139
1.20188
1.20179
1.20214
1.20178
1.20189
1.20132
1.2013
1.20061
1.20037
1.19925
1.21803
1.21802
1.21852
1.21809
1.21794
1.21756
1.21755
1.21744
1.21758
1.21759
1.21795
1.21809
1.21872
1.21867
1.21921
1.20389
1.20445
1.2051
1.20539
1.20536
1.20536
1.2053
1.20537
1.2053
1.20535
1.20529
1.20532
1.20522
1.20502
1.20488
1.21454
1.21487
1.21528
1.21521
1.21495
1.21461
1.21442
1.21436
1.21443
1.21459
1.21489
1.21517
1.21545
1.21547
1.21553
1.20734
1.2076
1.2079
1.20779
1.20742
1.20702
1.20673
1.20666
1.20672
1.20698
1.20734
1.20774
1.20808
1.2082
1.20828
1.2134
1.21359
1.21376
1.21352
1.21304
1.2125
1.21214
1.21203
1.21214
1.21246
1.21296
1.21348
1.21395
1.21418
1.21432
1.20912
1.20929
1.20943
1.20921
1.20876
1.20823
1.20787
1.20774
1.20786
1.20818
1.20868
1.20919
1.20965
1.20989
1.21002
1.21238
1.21256
1.21273
1.21259
1.21222
1.21176
1.21145
1.21133
1.21143
1.21171
1.21214
1.21257
1.21295
1.21316
1.21325
1.20943
1.20969
1.20996
1.21
1.20982
1.20952
1.20931
1.20922
1.2093
1.20947
1.20975
1.21
1.21021
1.21029
1.2103
1.21075
1.21105
1.21141
1.21162
1.21161
1.21146
1.21135
1.21129
1.21133
1.21141
1.21153
1.21163
1.21167
1.21164
1.21159
1.2097
1.21005
1.21052
1.2109
1.21107
1.21108
1.21107
1.21104
1.21104
1.21103
1.211
1.21092
1.2108
1.21065
1.21054
SCALARS u-velocity float 1
LOOKUP_TABLE default
99.6917
99.6738
99.647
99.6086
99.5707
99.5366
99.5133
99.5059
99.5139
99.5376
99.5722
99.6105
99.6492
99.6762
99.6942
98.8983
98.8708
98.8207
98.7544
98.6883
98.6274
98.589
98.5733
98.5893
98.628
98.6891
98.7555
98.8219
98.8722
98.8997
99.7914
99.7806
99.7506
99.7161
99.6784
99.6445
99.6235
99.6141
99.624
99.6456
99.68
99.7182
99.753
99.7833
99.7942
98.6237
98.6234
98.6113
98.6028
98.5933
98.5843
98.5816
98.5773
98.5818
98.5847
98.5937
98.6034
98.6119
98.624
98.6242
99.7721
99.7981
99.8238
99.8675
99.9006
99.9353
99.9542
99.9637
99.9552
99.9372
99.9033
99.8709
99.8281
99.803
99.7773
98.2708
98.2917
98.3231
98.379
98.436
98.4915
98.5282
98.5418
98.5283
98.4919
98.4365
98.3795
98.3232
98.2914
98.2701
99.7712
99.8547
99.9563
100.1
100.207
100.325
100.377
100.415
100.379
100.329
100.213
100.108
99.9664
99.8668
99.785
97.9865
97.9716
97.9947
98.0699
98.1522
98.2469
98.2979
98.3317
98.2989
98.2494
98.1549
98.074
97.9968
97.9717
97.9831
99.639
99.9508
100.155
100.477
100.646
100.873
100.932
101.014
100.937
100.881
100.66
100.494
100.178
99.9823
99.6808
97.3927
97.2892
97.4276
97.6605
97.8336
98.0797
98.1769
98.2783
98.1822
98.0922
97.8464
97.6831
97.4457
97.302
97.3752
97.8378
99.6839
100.029
101.226
101.714
102.255
102.433
102.568
102.441
102.27
101.744
101.259
100.073
99.7431
97.977
89.6967
94.6766
96.4617
98.2215
99.1994
100.31
100.703
101.007
100.719
100.349
99.2404
98.294
96.5391
94.8299
89.6181
90.1341
94.2966
101.782
104.017
106.471
106.878
107.893
107.631
107.909
106.91
106.526
104.109
101.911
94.3657
90.4147
123.932
120.38
120.927
119.446
119.72
118.212
118.591
117.72
118.591
118.186
119.726
119.373
120.874
120.434
125.104
134.861
130.598
127.568
124.964
123.904
122.13
121.937
121.159
121.953
122.148
123.951
124.964
127.638
131.059
136.031
137.007
133.264
130.018
127.569
126.359
124.899
124.519
123.964
124.55
124.952
126.447
127.662
130.258
133.897
138.153
117.917
120.334
118.207
118.461
117.418
117.515
116.78
117.021
116.801
117.516
117.463
118.411
118.344
120.869
120.167
89.3935
101.77
102.706
106.31
106.544
108.623
108.221
109.163
108.188
108.553
106.399
106.021
102.42
102.369
92.2471
79.3894
90.8154
95.7526
99.1633
100.332
102.065
102.202
102.85
102.16
102.008
100.113
98.8924
95.5324
91.876
81.8086
96.2535
98.8929
102.097
103.053
103.446
103.904
103.956
104.18
103.953
103.888
103.33
102.888
102.234
100.17
98.7809
91.2577
93.9833
97.0883
98.6202
99.1565
99.6619
99.8043
100.012
99.7959
99.6216
98.995
98.4303
97.2769
95.2902
93.6689
96.0145
98.0517
100.595
101.811
102.189
102.338
102.43
102.498
102.435
102.305
102.054
101.679
100.91
99.4045
98.3373
93.4617
95.4231
97.8582
99.2595
99.7354
99.9116
100.009
100.078
100.008
99.86
99.5796
99.1385
98.228
96.7994
95.7315
95.5571
97.3472
99.6083
101.018
101.533
101.67
101.747
101.787
101.744
101.61
101.379
100.932
100.036
98.7274
97.7473
94.2892
95.9889
98.1798
99.6561
100.246
100.407
100.472
100.507
100.463
100.332
100.085
99.5932
98.6532
97.383
96.4395
95.3777
96.9658
99.0583
100.544
101.18
101.349
101.398
101.419
101.381
101.262
101.018
100.508
99.5679
98.3543
97.4672
94.8666
96.3683
98.389
99.882
100.557
100.736
100.767
100.776
100.742
100.637
100.395
99.8712
98.9334
97.7619
96.9207
95.4106
96.8224
98.7571
100.231
100.927
101.108
101.12
101.115
101.086
100.998
100.767
100.245
99.3284
98.2094
97.4187
95.3272
96.6635
98.5237
99.9783
100.689
100.872
100.866
100.847
100.823
100.751
100.532
100.014
99.1202
98.0483
97.301
95.4753
96.7457
98.5353
99.9688
100.694
100.884
100.869
100.838
100.816
100.754
100.542
100.027
99.1528
98.1242
97.4135
SCALARS v-velocity float 1
LOOKUP_TABLE default
0.000315442
-0.000812858
0.000767625
-0.000490144
0.00079129
-0.000143026
0.000326411
-7.2341e-06
-0.000342727
0.000124952
-0.000813734
0.000466593
-0.000790747
0.000796297
-0.000320438
-0.0423005
-0.113195
-0.166333
-0.193286
-0.182206
-0.144639
-0.077431
0.00095318
0.0792938
0.146377
0.183745
0.194554
0.167289
0.113776
0.0425102
-0.0752073
-0.1951
-0.293055
-0.334392
-0.319439
-0.250378
-0.136029
0.000507768
0.13703
0.251288
0.320236
0.335018
0.293511
0.195363
0.0753028
-0.0849742
-0.22022
-0.334051
-0.379255
-0.364683
-0.283983
-0.15446
0.00203797
0.158451
0.28773
0.36804
0.382062
0.336209
0.221551
0.0854576
-0.0866971
-0.218275
-0.335547
-0.372721
-0.361367
-0.277205
-0.152686
0.000716454
0.154142
0.27848
0.362485
0.373542
0.336079
0.218555
0.0867668
-0.0439218
-0.116239
-0.186917
-0.207987
-0.208126
-0.157227
-0.0870708
0.00398698
0.0948397
0.164634
0.21482
0.213732
0.191501
0.119161
0.0450295
-0.0193451
-0.035586
-0.0605969
-0.0491867
-0.054287
-0.0319507
-0.0200031
0.00123
0.0226695
0.0339894
0.0560086
0.0501133
0.0606822
0.0353559
0.018941
0.107372
0.217147
0.304162
0.333004
0.298765
0.235832
0.125831
0.00853866
-0.109474
-0.219741
-0.284219
-0.320054
-0.293109
-0.209441
-0.103941
0.0925476
0.301672
0.463123
0.531881
0.509814
0.403218
0.222287
0.00484788
-0.211256
-0.395205
-0.502509
-0.527814
-0.462692
-0.303728
-0.0965646
0.480874
0.781859
1.09336
1.19565
1.03655
0.813116
0.423102
0.0181436
-0.389795
-0.778203
-1.00548
-1.16648
-1.06778
-0.759676
-0.464669
1.22212
1.99857
2.43315
2.38559
2.12024
1.54979
0.832488
0.0206945
-0.783201
-1.51248
-2.08005
-2.35946
-2.41033
-1.99584
-1.25316
-0.219082
3.60847
2.87175
3.47878
2.40932
1.99439
0.926135
0.0349098
-0.867395
-1.92754
-2.35718
-3.42173
-2.84337
-3.58789
0.25662
23.2066
20.1473
16.2454
13.191
9.30622
6.32295
3.05568
0.066039
-2.89584
-6.18787
-9.12547
-13.0546
-16.0209
-19.9745
-22.9784
25.1882
16.1459
13.2761
8.79399
6.72272
3.91321
2.08624
0.0743499
-1.94678
-3.76124
-6.58336
-8.6254
-13.1094
-15.9478
-25.3579
11.4249
7.12837
6.79855
4.20201
3.77146
2.03345
1.23289
0.0673856
-1.15079
-1.90427
-3.71653
-4.08366
-6.798
-7.09268
-11.6569
-8.22907
-8.55819
-4.67817
-4.79469
-2.36952
-2.09361
-0.677463
0.124764
0.854132
2.34548
2.55106
5.05887
4.87966
8.84601
8.45965
-20.8692
-18.1387
-12.1425
-10.089
-6.23063
-4.41069
-1.84711
0.154554
2.06752
4.74341
6.48471
10.5023
12.5164
18.8035
21.5445
-23.3527
-18.4628
-14.4901
-10.9363
-7.89528
-5.01576
-2.43818
0.186938
2.63203
5.41333
8.09251
11.4226
14.7289
19.2287
23.9351
-2.50951
-0.588222
-2.35407
-1.4686
-1.87856
-1.015
-0.674341
0.0430503
0.695579
1.08708
1.87949
1.51543
2.32337
0.52193
2.36996
-1.97412
-2.38301
-2.93988
-2.48223
-2.29815
-1.49101
-0.816982
0.0551855
0.880624
1.59085
2.35636
2.56707
2.97565
2.34125
1.95161
-0.27846
-0.479539
-0.683288
-0.563235
-0.676193
-0.435945
-0.276303
0.00930021
0.278928
0.450773
0.685208
0.583333
0.682546
0.433546
0.252665
-0.267423
-0.599759
-0.786921
-0.746213
-0.756307
-0.545601
-0.309944
0.0106051
0.322158
0.564833
0.774729
0.766425
0.781968
0.555254
0.243678
-0.126314
-0.329011
-0.418247
-0.408433
-0.418588
-0.320154
-0.185291
0.00108718
0.184877
0.325188
0.429415
0.421135
0.412209
0.29777
0.108432
-0.115526
-0.287809
-0.367021
-0.355788
-0.35033
-0.272004
-0.156759
-0.000566213
0.154909
0.275021
0.358714
0.36216
0.353674
0.254802
0.0976217
-0.0705071
-0.169444
-0.206643
-0.186422
-0.183254
-0.144383
-0.0865686
-0.00102787
0.0852362
0.14822
0.192871
0.193591
0.196768
0.144397
0.0567554
-0.0421263
-0.0921633
-0.0975278
-0.0630061
-0.060224
-0.0466791
-0.0336607
-0.00264629
0.0297095
0.0478998
0.0661344
0.0645898
0.0827423
0.0656916
0.0284749
-0.0102791
-0.0100899
0.0178752
0.0625109
0.0619031
0.0496858
0.0200283
-0.00142592
-0.0211242
-0.0455869
-0.0537755
-0.0592579
-0.0295023
-0.0114648
-0.000845573
0.0052818
0.0284457
0.0744032
0.123731
0.124626
0.0992785
0.0477189
-0.0026387
-0.0510299
-0.0975638
-0.119835
-0.124671
-0.089142
-0.05079
-0.0162662
0.0107463
0.0398763
0.0885282
0.134021
0.136932
0.108977
0.0547026
-0.00168861
-0.0559633
-0.105345
-0.130846
-0.133849
-0.100893
-0.0587819
-0.02
-0.00355607
0.000434025
0.0305089
0.0648759
0.0742325
0.0592622
0.0284764
-0.00268476
-0.0316296
-0.0576043
-0.0705896
-0.0674638
-0.0449587
-0.0201697
-0.00581345
SCALARS Mach float 1
LOOKUP_TABLE default
30.1188
30.1077
30.091
30.0672
30.0437
30.0225
30.0081
30.0035
30.0084
30.0231
30.0446
30.0684
30.0924
30.1092
30.1204
29.6545
29.6376
29.6066
29.5657
29.5249
29.4873
29.4636
29.4539
29.4638
29.4877
29.5255
29.5664
29.6074
29.6385
29.6554
30.1749
30.1686
30.1503
30.1294
30.1064
30.0856
30.0727
30.0668
30.073
30.0862
30.1074
30.1306
30.1518
30.1702
30.1766
29.4876
29.4883
29.4818
29.478
29.4733
29.4687
29.4677
29.4651
29.4678
29.4689
29.4736
29.4784
29.4822
29.4886
29.488
30.1528
30.1701
30.1876
30.2168
30.2394
30.2626
30.2755
30.2816
30.2761
30.2637
30.241
30.2189
30.1901
30.173
30.156
29.274
29.2884
29.31
29.3476
29.3855
29.4222
29.4464
29.4555
29.4465
29.4225
29.3858
29.3479
29.3101
29.2883
29.2736
30.1422
30.1949
30.2599
30.3522
30.4216
30.4976
30.532
30.5567
30.5333
30.5
30.4254
30.3569
30.266
30.2022
30.1505
29.1084
29.1021
29.1194
29.1694
29.2229
29.2841
29.3168
29.3385
29.3175
29.2856
29.2245
29.1719
29.1207
29.1021
29.1065
30.0559
30.2467
30.374
30.5751
30.6816
30.8243
30.8626
30.914
30.8654
30.8296
30.6902
30.5853
30.3882
30.2658
30.0812
28.7689
28.7126
28.7977
28.9418
29.0457
29.1956
29.2528
29.3148
29.2559
29.2029
29.0531
28.955
28.8084
28.7203
28.7587
28.9617
30.0815
30.3005
31.037
31.3367
31.669
31.7751
31.8589
31.7802
31.6782
31.3548
31.057
30.3269
30.1174
29.0446
24.41
27.2556
28.2727
29.3375
29.9039
30.5781
30.8077
30.9939
30.817
30.6007
29.9281
29.3797
28.3179
27.3439
24.368
26.1486
28.1042
32.1399
33.2809
34.59
34.7204
35.2896
35.093
35.2973
34.736
34.6156
33.3294
32.1974
28.1233
26.2696
48.8606
45.0008
45.1659
43.7311
43.8455
42.632
42.8839
42.2253
42.8822
42.6093
43.8445
43.6685
45.1132
45.021
49.7927
55.8889
52.0966
49.6976
47.5454
46.7407
45.3448
45.2077
44.6055
45.2197
45.3569
46.7752
47.5415
49.7534
52.4662
56.8882
57.6954
54.4971
51.7451
49.7419
48.7688
47.5959
47.3188
46.8636
47.3438
47.6402
48.8411
49.8226
51.9462
55.0373
58.694
43.6247
45.0101
42.9359
42.9412
42.0176
42.0002
41.4452
41.5848
41.4636
42.0099
42.0612
42.9305
43.0648
45.4816
45.3638
25.9048
32.4999
32.6933
34.7131
34.6956
35.9397
35.6235
36.2214
35.6046
35.9053
34.6115
34.5569
32.5373
32.9612
27.5768
19.0255
24.9286
27.7449
29.7682
30.4836
31.5471
31.6332
32.0351
31.6065
31.5115
30.3496
29.6041
27.6156
25.5177
20.2066
28.1257
29.7006
31.6738
32.262
32.5062
32.7825
32.8123
32.95
32.8106
32.7733
32.4339
32.159
31.761
30.4782
29.6351
25.1903
26.7289
28.5347
29.4488
29.7718
30.0776
30.164
30.29
30.1588
30.0529
29.674
29.3343
28.6464
27.4833
26.55
27.9522
29.1593
30.701
31.4522
31.6874
31.7787
31.8365
31.8782
31.8394
31.7582
31.6025
31.3697
30.8954
29.9765
29.3332
26.4395
27.5685
29.0026
29.8455
30.1351
30.2432
30.3032
30.3454
30.3029
30.2117
30.0401
29.7721
29.2241
28.3764
27.7505
27.6722
28.726
30.0854
30.9503
31.2703
31.3566
31.4056
31.4308
31.404
31.3191
31.1744
30.8968
30.3468
29.5536
28.9666
26.916
27.902
29.1994
30.0919
30.4536
30.5542
30.5961
30.6179
30.5902
30.5081
30.3548
30.0536
29.4841
28.7254
28.1684
27.5617
28.4937
29.7459
30.6526
31.0465
31.1533
31.1853
31.1992
31.1747
31.0993
30.9466
30.6306
30.0555
29.3229
28.7933
27.2511
28.1265
29.3269
30.2312
30.6459
30.7577
30.7783
30.7845
30.7625
30.6965
30.5464
30.2246
29.6553
28.9531
28.4544
27.5828
28.4103
29.5649
30.461
30.8893
31.0023
31.0109
31.0081
30.9895
30.9341
30.7908
30.4693
29.9111
29.2375
28.7664
27.5185
28.3
29.4066
30.2872
30.7227
30.8354
30.8326
30.8207
30.8056
30.7609
30.6261
30.3092
29.767
29.1238
28.6799
27.6329
28.3773
29.443
30.3111
30.7549
30.8717
30.8627
30.8435
30.8302
30.7917
30.6611
30.3466
29.8165
29.1989
28.7761
