# vtk DataFile Version 3.0
Structured Grid Example
ASCII
DATASET STRUCTURED_GRID
DIMENSIONS 15 30 1
POINTS 450 FLOAT
0.0833327 0.0333334 0
0.0833313 0.1 0
0.0833301 0.166667 0
0.083329 0.233333 0
0.0833281 0.3 0
0.0833274 0.366667 0
0.083327 0.433333 0
0.0833268 0.5 0
0.083327 0.566667 0
0.0833274 0.633333 0
0.0833281 0.7 0
0.083329 0.766667 0
0.0833301 0.833333 0
0.0833313 0.9 0
0.0833327 0.966667 0
0.249998 0.0333334 0
0.249993 0.1 0
0.249989 0.166667 0
0.249986 0.233334 0
0.249983 0.3 0
0.24998 0.366667 0
0.249979 0.433333 0
0.249979 0.5 0
0.249979 0.566667 0
0.24998 0.633333 0
0.249983 0.7 0
0.249986 0.766666 0
0.249989 0.833333 0
0.249993 0.9 0
0.249998 0.966667 0
0.416662 0.0333336 0
0.416654 0.100001 0
0.416646 0.166668 0
0.416639 0.233334 0
0.416633 0.300001 0
0.416628 0.366667 0
0.416626 0.433334 0
0.416625 0.5 0
0.416626 0.566666 0
0.416628 0.633333 0
0.416633 0.699999 0
0.416639 0.766666 0
0.416646 0.833332 0
0.416654 0.899999 0
0.416662 0.966666 0
0.583326 0.033334 0
0.58331 0.100002 0
0.583296 0.166669 0
0.583284 0.233336 0
0.583273 0.300003 0
0.583266 0.366669 0
0.583261 0.433335 0
0.583259 0.5 0
0.583261 0.566665 0
0.583266 0.633331 0
0.583273 0.699997 0
0.583284 0.766664 0
0.583296 0.833331 0
0.58331 0.899998 0
0.583326 0.966666 0
0.749987 0.0333351 0
0.749961 0.100005 0
0.749937 0.166674 0
0.749915 0.233342 0
0.749898 0.300008 0
0.749884 0.366673 0
0.749876 0.433337 0
0.749874 0.5 0
0.749876 0.566663 0
0.749884 0.633327 0
0.749898 0.699992 0
0.749915 0.766658 0
0.749937 0.833326 0
0.749961 0.899995 0
0.749987 0.966665 0
0.916644 0.033338 0
0.916601 0.100013 0
0.91656 0.166686 0
0.916524 0.233356 0
0.916494 0.300021 0
0.916472 0.366683 0
0.916458 0.433342 0
0.916454 0.5 0
0.916458 0.566658 0
0.916472 0.633317 0
0.916494 0.699979 0
0.916524 0.766644 0
0.91656 0.833314 0
0.916601 0.899987 0
0.916644 0.966662 0
1.0833 0.0333461 0
1.08322 0.100036 0
1.08315 0.166719 0
1.08309 0.233394 0
1.08304 0.300058 0
1.08301 0.366712 0
1.08298 0.433358 0
1.08298 0.5 0
1.08298 0.566642 0
1.08301 0.633288 0
1.08304 0.699942 0
1.08309 0.766606 0
1.08315 0.833281 0
1.08322 0.899964 0
1.0833 0.966654 0
1.24994 0.0333682 0
1.24981 0.100098 0
1.2497 0.16681 0
1.24959 0.233497 0
1.24951 0.300156 0
1.24945 0.366788 0
1.24942 0.433399 0
1.2494 0.5 0
1.24942 0.566601 0
1.24945 0.633212 0
1.24951 0.699844 0
1.24959 0.766503 0
1.2497 0.83319 0
1.24981 0.899902 0
1.24994 0.966632 0
1.41656 0.0334298 0
1.41634 0.10027 0
1.41615 0.16706 0
1.41598 0.233778 0
1.41585 0.300419 0
1.41575 0.36699 0
1.41569 0.433509 0
1.41567 0.5 0
1.41569 0.566491 0
1.41575 0.63301 0
1.41585 0.699581 0
1.41598 0.766222 0
1.41615 0.83294 0
1.41634 0.89973 0
1.41656 0.96657 0
1.58313 0.0336075 0
1.58275 0.10076 0
1.58242 0.167751 0
1.58215 0.234537 0
1.58195 0.301115 0
1.58181 0.367517 0
1.58173 0.433791 0
1.58171 0.5 0
1.58173 0.566209 0
1.58181 0.632483 0
1.58195 0.698885 0
1.58215 0.765463 0
1.58242 0.832249 0
1.58275 0.89924 0
1.58313 0.966392 0
1.74959 0.0341677 0
1.74885 0.102235 0
1.74829 0.169714 0
1.74791 0.236575 0
1.74766 0.302905 0
1.74751 0.368829 0
1.74744 0.434482 0
1.74741 0.5 0
1.74744 0.565518 0
1.74751 0.631171 0
1.74766 0.697095 0
1.74791 0.763425 0
1.74829 0.830286 0
1.74885 0.897765 0
1.74959 0.965832 0
1.91555 0.0363295 0
1.91388 0.107253 0
1.91312 0.175401 0
1.91283 0.241837 0
1.91276 0.307169 0
1.91277 0.371793 0
1.9128 0.435995 0
1.91281 0.5 0
1.9128 0.564005 0
1.91277 0.628207 0
1.91276 0.692831 0
1.91283 0.758163 0
1.91312 0.824599 0
1.91388 0.892747 0
1.91555 0.963671 0
2.07838 0.0591504 0
2.07417 0.125973 0
2.07554 0.190391 0
2.07663 0.253364 0
2.07743 0.315525 0
2.07798 0.377223 0
2.07829 0.438667 0
2.0784 0.5 0
2.07829 0.561333 0
2.07798 0.622777 0
2.07743 0.684475 0
2.07663 0.746636 0
2.07554 0.809609 0
2.07417 0.874027 0
2.07838 0.94085 0
2.24384 0.096456 0
2.23911 0.153168 0
2.24152 0.210396 0
2.24318 0.267878 0
2.24431 0.325632 0
2.24503 0.383617 0
2.24544 0.441767 0
2.24557 0.5 0
2.24544 0.558233 0
2.24503 0.616383 0
2.24431 0.674368 0
2.24318 0.732122 0
2.24152 0.789604 0
2.23911 0.846832 0
2.24384 0.903544 0
2.41462 0.118677 0
2.41292 0.170231 0
2.41356 0.223198 0
2.41406 0.277268 0
2.41444 0.332207 0
2.4147 0.387788 0
2.41485 0.44379 0
2.4149 0.5 0
2.41485 0.55621 0
2.4147 0.612212 0
2.41444 0.667793 0
2.41406 0.722732 0
2.41356 0.776802 0
2.41292 0.829769 0
2.41462 0.881323 0
2.58538 0.118677 0
2.58708 0.170231 0
2.58644 0.223198 0
2.58594 0.277268 0
2.58556 0.332207 0
2.5853 0.387788 0
2.58515 0.44379 0
2.5851 0.5 0
2.58515 0.55621 0
2.5853 0.612212 0
2.58556 0.667793 0
2.58594 0.722732 0
2.58644 0.776802 0
2.58708 0.829769 0
2.58538 0.881323 0
2.75616 0.096456 0
2.76089 0.153168 0
2.75848 0.210396 0
2.75682 0.267878 0
2.75569 0.325632 0
2.75497 0.383617 0
2.75456 0.441767 0
2.75443 0.5 0
2.75456 0.558233 0
2.75497 0.616383 0
2.75569 0.674368 0
2.75682 0.732122 0
2.75848 0.789604 0
2.76089 0.846832 0
2.75616 0.903544 0
2.92162 0.0591504 0
2.92583 0.125973 0
2.92446 0.190391 0
2.92337 0.253364 0
2.92257 0.315525 0
2.92202 0.377223 0
2.92171 0.438667 0
2.9216 0.5 0
2.92171 0.561333 0
2.92202 0.622777 0
2.92257 0.684475 0
2.92337 0.746636 0
2.92446 0.809609 0
2.92583 0.874027 0
2.92162 0.94085 0
3.08445 0.0363295 0
3.08612 0.107253 0
3.08688 0.175401 0
3.08717 0.241837 0
3.08724 0.307169 0
3.08723 0.371793 0
3.0872 0.435995 0
3.08719 0.5 0
3.0872 0.564005 0
3.08723 0.628207 0
3.08724 0.692831 0
3.08717 0.758163 0
3.08688 0.824599 0
3.08612 0.892747 0
3.08445 0.963671 0
3.25041 0.0341677 0
3.25115 0.102235 0
3.25171 0.169714 0
3.25209 0.236575 0
3.25234 0.302905 0
3.25249 0.368829 0
3.25256 0.434482 0
3.25259 0.5 0
3.25256 0.565518 0
3.25249 0.631171 0
3.25234 0.697095 0
3.25209 0.763425 0
3.25171 0.830286 0
3.25115 0.897765 0
3.25041 0.965832 0
3.41687 0.0336075 0
3.41725 0.10076 0
3.41758 0.167751 0
3.41785 0.234537 0
3.41805 0.301115 0
3.41819 0.367517 0
3.41827 0.433791 0
3.41829 0.5 0
3.41827 0.566209 0
3.41819 0.632483 0
3.41805 0.698885 0
3.41785 0.765463 0
3.41758 0.832249 0
3.41725 0.89924 0
3.41687 0.966392 0
3.58344 0.0334298 0
3.58366 0.10027 0
3.58385 0.16706 0
3.58402 0.233778 0
3.58415 0.300419 0
3.58425 0.36699 0
3.58431 0.433509 0
3.58433 0.5 0
3.58431 0.566491 0
3.58425 0.63301 0
3.58415 0.699581 0
3.58402 0.766222 0
3.58385 0.83294 0
3.58366 0.89973 0
3.58344 0.96657 0
3.75006 0.0333682 0
3.75019 0.100098 0
3.7503 0.16681 0
3.75041 0.233497 0
3.75049 0.300156 0
3.75055 0.366788 0
3.75058 0.433399 0
3.7506 0.5 0
3.75058 0.566601 0
3.75055 0.633212 0
3.75049 0.699844 0
3.75041 0.766503 0
3.7503 0.83319 0
3.75019 0.899902 0
3.75006 0.966632 0
3.9167 0.0333461 0
3.91678 0.100036 0
3.91685 0.166719 0
3.91691 0.233394 0
3.91696 0.300058 0
3.91699 0.366712 0
3.91702 0.433358 0
3.91702 0.5 0
3.91702 0.566642 0
3.91699 0.633288 0
3.91696 0.699942 0
3.91691 0.766606 0
3.91685 0.833281 0
3.91678 0.899964 0
3.9167 0.966654 0
4.08336 0.033338 0
4.0834 0.100013 0
4.08344 0.166686 0
4.08348 0.233356 0
4.08351 0.300021 0
4.08353 0.366683 0
4.08354 0.433342 0
4.08355 0.5 0
4.08354 0.566658 0
4.08353 0.633317 0
4.08351 0.699979 0
4.08348 0.766644 0
4.08344 0.833314 0
4.0834 0.899987 0
4.08336 0.966662 0
4.25001 0.0333351 0
4.25004 0.100005 0
4.25006 0.166674 0
4.25008 0.233342 0
4.2501 0.300008 0
4.25012 0.366673 0
4.25012 0.433337 0
4.25013 0.5 0
4.25012 0.566663 0
4.25012 0.633327 0
4.2501 0.699992 0
4.25008 0.766658 0
4.25006 0.833326 0
4.25004 0.899995 0
4.25001 0.966665 0
4.41667 0.033334 0
4.41669 0.100002 0
4.4167 0.166669 0
4.41672 0.233336 0
4.41673 0.300003 0
4.41673 0.366669 0
4.41674 0.433335 0
4.41674 0.5 0
4.41674 0.566665 0
4.41673 0.633331 0
4.41673 0.699997 0
4.41672 0.766664 0
4.4167 0.833331 0
4.41669 0.899998 0
4.41667 0.966666 0
4.58334 0.0333336 0
4.58335 0.100001 0
4.58335 0.166668 0
4.58336 0.233334 0
4.58337 0.300001 0
4.58337 0.366667 0
4.58337 0.433334 0
4.58338 0.5 0
4.58337 0.566666 0
4.58337 0.633333 0
4.58337 0.699999 0
4.58336 0.766666 0
4.58335 0.833332 0
4.58335 0.899999 0
4.58334 0.966666 0
4.75 0.0333334 0
4.75001 0.1 0
4.75001 0.166667 0
4.75001 0.233334 0
4.75002 0.3 0
4.75002 0.366667 0
4.75002 0.433333 0
4.75002 0.5 0
4.75002 0.566667 0
4.75002 0.633333 0
4.75002 0.7 0
4.75001 0.766666 0
4.75001 0.833333 0
4.75001 0.9 0
4.75 0.966667 0
4.91667 0.0333334 0
4.91667 0.1 0
4.91667 0.166667 0
4.91667 0.233333 0
4.91667 0.3 0
4.91667 0.366667 0
4.91667 0.433333 0
4.91667 0.5 0
4.91667 0.566667 0
4.91667 0.633333 0
4.91667 0.7 0
4.91667 0.766667 0
4.91667 0.833333 0
4.91667 0.9 0
4.91667 0.966667 0
POINT_DATA 450
SCALARS pressure float 1
LOOKUP_TABLE default
94472.9
94472.9
94472.8
94472.8
94472.8
94472.8
94472.8
94472.8
94472.8
94472.8
94472.8
94472.8
94472.8
94472.8
94472.8
94206.3
94206.2
94206.3
94206.1
94206.2
94206.1
94206.2
94206
94206.2
94206
94206.2
94206.1
94206.2
94206.1
94206.1
94535
94535
94535
94535.1
94535.1
94535.1
94535.1
94535.1
94535.1
94535.1
94535
94535
94535
94535
94535
94136.9
94136.7
94136.9
94136.3
94136.7
94136
94136.5
94135.8
94136.4
94135.9
94136.5
94136.2
94136.6
94136.5
94136.7
94613.2
94613.1
94613
94612.8
94612.7
94612.4
94612.5
94612.2
94612.4
94612.4
94612.6
94612.7
94612.9
94613
94613.1
94050.8
94049.5
94049.9
94047.1
94048
94044.9
94046.5
94043.8
94046.3
94044.6
94047.5
94046.6
94049.2
94048.9
94050.1
94718
94716.8
94716.2
94713.7
94713
94710.5
94710.7
94709.1
94710.6
94710.3
94712.8
94713.4
94715.9
94716.4
94717.6
93950
93942.2
93942.2
93927.9
93929.1
93915
93919.8
93909.7
93919.4
93914.2
93927.9
93926.5
93940.5
93940.4
93948.1
94880.3
94868.6
94863.5
94845.8
94840.7
94825.5
94825.7
94817.4
94825.5
94824.8
94840.1
94844.7
94862.6
94867.3
94879.1
93907.1
93841.1
93835.3
93754.8
93750.5
93689.4
93699.5
93665.2
93698.4
93687.5
93747.4
93751.1
93830.5
93836
93901.6
95281.5
95140
95101.7
94990.7
94958.4
94887.4
94882.9
94850.9
94882.4
94885.3
94957.1
94986.8
95099.8
95135
95278.9
94573.7
93812.9
93770.7
93352.7
93301.7
93102.6
93095.6
93024
93093.3
93099.1
93294.3
93344.7
93757.9
93798.6
94555.1
96101.7
95460.1
95050.9
94756
94614
94480.4
94442.7
94402.7
94442.1
94474.7
94612.9
94742.8
95050.6
95435.3
96102.5
89135
90212.7
89828.1
90519
90314.5
90746.8
90554
90827.7
90553.7
90751.5
90313.7
90531.2
89827
90239.3
89126.9
90209.8
91519.3
91409.9
92232
92070.5
92592.1
92363.3
92702.3
92359.9
92595.1
92059.8
92239.2
91390.9
91532.8
90174
87372
88849.5
88627.8
89612.5
89372.4
90029.5
89716.8
90161
89709.9
90026
89350.6
89602.4
88587.5
88824.5
87297.5
91766.7
92526.8
92295.4
92847.9
92625.7
93036.3
92780
93098.1
92774.4
93039.5
92607.2
92853.4
92259.1
92530.2
91703.1
93241.8
92723.9
92592.7
92411.5
92287.6
92288.8
92170.1
92260.8
92167.3
92305.6
92278.9
92449.5
92575
92796
93236.6
96862.2
95830.8
95649.9
95164.2
95023
94822.3
94755.2
94720.6
94761.8
94835
95045
95189.9
95693.5
95869.1
96962
93013.5
93087.9
93062.6
93091.9
93061.1
93083.4
93050.7
93079.3
93049.7
93084.8
93057.8
93093.1
93056.3
93085.5
93004.8
95122.5
95040.5
95000.4
94906.8
94870.4
94810.4
94797.3
94777.8
94799.7
94814.8
94877.3
94914.7
95010.8
95050.5
95135.4
93518.8
93522.3
93520.6
93523.6
93520
93523.5
93518.7
93523.3
93518.6
93523.6
93519.5
93523.6
93519.9
93522.1
93518.4
94620.4
94613.3
94606.4
94592.7
94585.8
94574.3
94572.3
94567.6
94572.8
94575.4
94587.3
94594.4
94608.4
94615.2
94622.3
93782.1
93782.3
93782.4
93782.5
93782.3
93782.5
93782.2
93782.5
93782.2
93782.6
93782.5
93782.8
93782.7
93782.8
93782.7
94408
94407.1
94406
94403.9
94402.8
94400.9
94400.7
94399.7
94400.7
94401
94403
94404.1
94406.1
94407.2
94408
93923.5
93923.6
93923.9
93923.9
93924.1
93924.1
93924.3
93924.3
93924.4
93924.3
93924.4
93924.2
93924.3
93924.1
93924.1
94304.1
94303.9
94303.7
94303.3
94303.1
94302.8
94302.8
94302.5
94302.7
94302.7
94303.1
94303.2
94303.5
94303.7
94303.8
93995.1
93995.1
93995.3
93995.4
93995.6
93995.6
93995.7
93995.7
93995.8
93995.8
93995.8
93995.7
93995.7
93995.6
93995.5
94255.9
94255.9
94255.8
94255.7
94255.7
94255.5
94255.5
94255.5
94255.5
94255.5
94255.6
94255.6
94255.7
94255.7
94255.8
94024.7
94024.9
94025.2
94025.4
94025.6
94025.7
94025.8
94025.9
94025.9
94025.9
94025.9
94025.8
94025.7
94025.5
94025.5
SCALARS density float 1
LOOKUP_TABLE default
1.21459
1.21459
1.21459
1.21459
1.21459
1.21459
1.21459
1.21459
1.21459
1.21459
1.21459
1.21459
1.21459
1.21459
1.21459
1.21212
1.21212
1.21213
1.21213
1.21213
1.21213
1.21213
1.21213
1.21213
1.21213
1.21213
1.21213
1.21213
1.21212
1.21212
1.21514
1.21514
1.21514
1.21515
1.21515
1.21515
1.21515
1.21515
1.21515
1.21515
1.21515
1.21515
1.21515
1.21514
1.21514
1.21149
1.21149
1.21149
1.21149
1.21149
1.21149
1.21149
1.21149
1.21149
1.21149
1.21149
1.21149
1.21149
1.21149
1.21149
1.21586
1.21586
1.21586
1.21586
1.21586
1.21586
1.21586
1.21586
1.21586
1.21586
1.21586
1.21586
1.21586
1.21586
1.21586
1.21071
1.2107
1.2107
1.21068
1.21069
1.21066
1.21068
1.21066
1.21068
1.21066
1.21069
1.21068
1.2107
1.2107
1.21071
1.21681
1.2168
1.21679
1.21677
1.21677
1.21674
1.21674
1.21673
1.21674
1.21674
1.21677
1.21677
1.21679
1.2168
1.21681
1.20984
1.20977
1.20977
1.20964
1.20966
1.20953
1.20958
1.20949
1.20957
1.20953
1.20965
1.20963
1.20976
1.20976
1.20982
1.21817
1.21807
1.21804
1.21789
1.21785
1.21771
1.21772
1.21764
1.21772
1.21771
1.21785
1.21788
1.21803
1.21806
1.21816
1.2098
1.2092
1.20909
1.20832
1.20826
1.20769
1.20778
1.20746
1.20777
1.20767
1.20823
1.20829
1.20905
1.20915
1.20975
1.22087
1.2198
1.21963
1.21877
1.21856
1.21796
1.21794
1.21766
1.21794
1.21794
1.21855
1.21874
1.21962
1.21975
1.22086
1.2187
1.21073
1.20983
1.20555
1.20487
1.20285
1.20272
1.20201
1.2027
1.20281
1.20479
1.20546
1.2097
1.2106
1.21852
1.22568
1.22089
1.21786
1.21579
1.21475
1.21373
1.21346
1.21314
1.21346
1.21368
1.21475
1.21569
1.21788
1.22063
1.22568
1.16443
1.17507
1.17118
1.17779
1.17588
1.18
1.17819
1.18078
1.17819
1.18005
1.17588
1.1779
1.17116
1.17545
1.16499
1.17547
1.18818
1.18667
1.19424
1.19259
1.19743
1.19525
1.19841
1.19521
1.19746
1.19249
1.1943
1.1865
1.18853
1.17567
1.14719
1.16161
1.15949
1.16875
1.16651
1.17271
1.16983
1.17398
1.16977
1.17268
1.1663
1.16863
1.15914
1.16162
1.14701
1.18884
1.19645
1.19459
1.19968
1.19773
1.20148
1.19919
1.20207
1.19914
1.20151
1.19755
1.19971
1.19428
1.19673
1.18918
1.20182
1.19785
1.19694
1.19507
1.19393
1.19387
1.19285
1.19363
1.19283
1.19403
1.19385
1.19538
1.1968
1.19895
1.2031
1.23291
1.22537
1.22462
1.22043
1.21921
1.21744
1.2169
1.21658
1.21696
1.21755
1.21938
1.22059
1.22504
1.22621
1.23506
1.19884
1.20036
1.20087
1.20136
1.2011
1.20133
1.20107
1.20134
1.20107
1.20134
1.20104
1.2013
1.20089
1.20087
1.19984
1.2183
1.21826
1.21863
1.21807
1.21778
1.21725
1.21717
1.21701
1.2172
1.21728
1.21779
1.21807
1.21883
1.21892
1.21948
1.20373
1.20436
1.20502
1.20537
1.20539
1.20543
1.20542
1.20547
1.20542
1.20542
1.20533
1.20531
1.20515
1.20494
1.20473
1.21389
1.21438
1.21497
1.21519
1.2152
1.2151
1.21511
1.21508
1.21511
1.21509
1.21515
1.21515
1.21514
1.21499
1.21488
1.20626
1.20676
1.20738
1.20775
1.20785
1.20785
1.20786
1.20788
1.20786
1.20783
1.20778
1.20771
1.20756
1.20736
1.2072
1.21202
1.21248
1.21306
1.21342
1.21353
1.21352
1.21353
1.21353
1.21352
1.21349
1.21346
1.21339
1.21327
1.21308
1.21294
1.20765
1.20809
1.20866
1.20905
1.20919
1.20921
1.20921
1.20921
1.2092
1.20917
1.20912
1.20903
1.20889
1.20869
1.20855
1.21106
1.21146
1.21201
1.2124
1.21255
1.21257
1.21256
1.21256
1.21255
1.21252
1.21247
1.21239
1.21224
1.21206
1.21193
1.20852
1.20891
1.20945
1.20985
1.21002
1.21005
1.21005
1.21004
1.21003
1.21
1.20995
1.20986
1.2097
1.20952
1.20939
1.21028
1.21064
1.21115
1.21154
1.21172
1.21175
1.21175
1.21174
1.21173
1.2117
1.21165
1.21156
1.21141
1.21124
1.21112
1.20965
1.21
1.21051
1.2109
1.2111
1.21114
1.21113
1.21112
1.21111
1.21108
1.21103
1.21093
1.21078
1.21061
1.21049
SCALARS u-velocity float 1
LOOKUP_TABLE default
99.5967
99.5975
99.5983
99.5997
99.6006
99.6018
99.6021
99.6028
99.6024
99.6024
99.6014
99.6008
99.5996
99.5988
99.5982
98.7382
98.7379
98.7376
98.7373
98.7372
98.7371
98.7372
98.7372
98.7373
98.7374
98.7376
98.7378
98.7382
98.7385
98.7388
99.6993
99.7014
99.7035
99.7072
99.7089
99.712
99.7123
99.714
99.7128
99.7129
99.7103
99.7089
99.7056
99.7036
99.7017
98.6092
98.607
98.6039
98.6011
98.5992
98.598
98.5974
98.5972
98.5975
98.5982
98.5995
98.6015
98.6043
98.6073
98.6095
99.841
99.8499
99.859
99.8734
99.8798
99.8909
99.8918
99.8977
99.8927
99.8928
99.8826
99.877
99.8635
99.8549
99.8465
98.4285
98.4179
98.4045
98.3953
98.3898
98.3886
98.3872
98.3884
98.3874
98.3893
98.3905
98.3962
98.405
98.418
98.4282
99.969
100.016
100.057
100.118
100.144
100.188
100.192
100.213
100.194
100.192
100.15
100.126
100.068
100.028
99.9835
98.1788
98.1311
98.0933
98.0887
98.0918
98.1138
98.1195
98.1345
98.1207
98.1167
98.095
98.0934
98.0961
98.1319
98.1763
99.7854
100.075
100.231
100.494
100.601
100.772
100.798
100.864
100.803
100.781
100.616
100.511
100.255
100.108
99.8282
97.4461
97.337
97.453
97.6626
97.8102
98.032
98.1164
98.2093
98.1219
98.0449
97.8236
97.6859
97.472
97.3508
97.4296
97.8101
99.6651
100.014
101.225
101.723
102.273
102.458
102.593
102.467
102.288
101.754
101.259
100.059
99.7249
97.9498
89.6067
94.6048
96.4238
98.2278
99.2467
100.394
100.81
101.122
100.826
100.433
99.2878
98.3003
96.5012
94.7581
89.528
90.0026
94.2065
101.737
104.029
106.533
106.986
108.03
107.779
108.046
107.018
106.588
104.122
101.866
94.2757
90.2833
123.813
120.3
120.883
119.447
119.759
118.284
118.685
117.82
118.685
118.258
119.765
119.375
120.831
120.353
124.985
134.83
130.577
127.565
124.975
123.931
122.166
121.981
121.206
121.998
122.185
123.977
124.975
127.636
131.038
136
137
133.26
130.023
127.581
126.38
124.925
124.551
123.996
124.582
124.978
126.468
127.674
130.263
133.893
138.146
117.888
120.317
118.2
118.468
117.438
117.545
116.817
117.061
116.839
117.547
117.483
118.419
118.336
120.852
120.137
89.3303
101.722
102.68
106.318
106.58
108.686
108.3
109.248
108.267
108.616
106.435
106.029
102.394
102.32
92.183
79.2919
90.7299
95.7014
99.1548
100.366
102.138
102.298
102.956
102.255
102.081
100.147
98.8838
95.4809
91.7896
81.7112
96.1396
98.7946
102.031
103.027
103.461
103.956
104.031
104.265
104.028
103.94
103.345
102.862
102.168
100.071
98.6665
91.1808
93.9151
97.04
98.5969
99.1581
99.6883
99.8439
100.059
99.8354
99.6479
98.9965
98.4068
97.2283
95.2215
93.5915
95.999
98.0353
100.585
101.807
102.191
102.347
102.441
102.512
102.445
102.314
102.055
101.675
100.9
99.3879
98.3213
93.5187
95.4683
97.8922
99.2754
99.7342
99.8952
99.9802
100.047
99.9795
99.8433
99.5779
99.1542
98.2622
96.8448
95.7882
95.6713
97.4405
99.6744
101.045
101.523
101.625
101.678
101.71
101.675
101.564
101.368
100.959
100.103
98.821
97.8611
94.4242
96.0993
98.2537
99.6804
100.222
100.338
100.374
100.398
100.364
100.262
100.06
99.6173
98.7276
97.4938
96.5743
95.4955
97.0606
99.1153
100.551
101.139
101.262
101.282
101.292
101.265
101.175
100.977
100.515
99.6254
98.4495
97.5848
94.9403
96.4268
98.4182
99.8754
100.515
100.66
100.67
100.67
100.644
100.56
100.352
99.8646
98.963
97.8206
96.9941
95.4293
96.8367
98.7572
100.217
100.897
101.064
101.068
101.058
101.033
100.953
100.738
100.231
99.3288
98.2239
97.4372
95.2895
96.6327
98.4971
99.9622
100.682
100.872
100.873
100.854
100.829
100.751
100.525
99.9986
99.0941
98.018
97.2636
95.4191
96.703
98.5116
99.9732
100.725
100.939
100.941
100.915
100.889
100.81
100.573
100.032
99.1295
98.082
97.3578
SCALARS v-velocity float 1
LOOKUP_TABLE default
-0.000376831
-0.000749554
-0.00122275
-0.00122254
-0.00123706
-0.000928701
-0.000629631
-0.00021708
0.000205551
0.000529178
0.000880259
0.00092308
0.00099498
0.000607608
0.000327533
0.000706241
0.00131939
0.00224137
0.00221909
0.00229931
0.00172404
0.00118373
0.000404987
-0.000392394
-0.000979904
-0.00163576
-0.00166341
-0.00181956
-0.00105662
-0.000615283
-0.000807369
-0.00185705
-0.00267004
-0.00266334
-0.00241711
-0.00174327
-0.000994041
-0.000126553
0.000750841
0.00150198
0.00219299
0.00245989
0.00249986
0.00174694
0.000763414
0.00321652
0.00590905
0.00981872
0.0094983
0.00962859
0.00704855
0.00463037
0.00126772
-0.00215837
-0.00471055
-0.00753484
-0.00772572
-0.00845175
-0.00504985
-0.0029116
-0.00260846
-0.00623738
-0.00786782
-0.00740037
-0.00591353
-0.00407128
-0.00198992
-1.57456e-05
0.00199147
0.00399426
0.00580043
0.00720735
0.00761203
0.00604594
0.00249787
0.014671
0.0267413
0.0420576
0.0404142
0.0394422
0.0286845
0.0175631
0.00335215
-0.0110611
-0.0224525
-0.0338261
-0.0355532
-0.0381673
-0.0242302
-0.0137232
-0.00607316
-0.011069
-0.00666634
-0.00211027
0.00370844
0.00434885
0.00419685
0.000737876
-0.00252698
-0.00322411
-0.0028389
0.00234284
0.00619695
0.0105126
0.00554041
0.073327
0.119195
0.174868
0.171394
0.158589
0.117058
0.0660722
0.00823103
-0.0503294
-0.101511
-0.144529
-0.158805
-0.164096
-0.11163
-0.0699607
0.0150915
0.0945036
0.166724
0.182899
0.188984
0.144677
0.0859551
0.00477003
-0.0751122
-0.136782
-0.181799
-0.178885
-0.16635
-0.096584
-0.0191296
0.37698
0.509144
0.69351
0.73265
0.603273
0.468868
0.239015
0.01826
-0.205461
-0.433675
-0.571907
-0.703143
-0.667666
-0.486733
-0.360707
1.11441
1.72006
2.02072
1.91401
1.67598
1.20018
0.644489
0.0211882
-0.594295
-1.16192
-1.63498
-1.88715
-1.99734
-1.71703
-1.14534
-0.314511
3.35793
2.50707
3.0691
2.02414
1.69607
0.764886
0.0353865
-0.705247
-1.6283
-1.97117
-3.01128
-2.47811
-3.33689
0.352302
23.1015
19.9517
15.9938
12.9216
9.06196
6.1367
2.95636
0.0665505
-2.79564
-6.00071
-8.88045
-12.7846
-15.7687
-19.7788
-22.8727
25.1273
16.0649
13.1677
8.69123
6.62467
3.84367
2.04765
0.0752409
-1.90657
-3.69015
-6.48402
-8.52172
-13.0002
-15.8666
-25.2967
11.4079
7.10018
6.75475
4.1596
3.72793
2.00333
1.21559
0.0685497
-1.13128
-1.87208
-3.67121
-4.0399
-6.75308
-7.06398
-11.6397
-8.23288
-8.56833
-4.69698
-4.8126
-2.39003
-2.1068
-0.685459
0.126033
0.864604
2.3609
2.57353
5.07822
4.89958
8.85665
8.46355
-20.8601
-18.1312
-12.1373
-10.0842
-6.22915
-4.40834
-1.84626
0.155811
2.06913
4.74327
6.48517
10.4988
12.5122
18.7966
21.5354
-23.3208
-18.4082
-14.4349
-10.8755
-7.84809
-4.97692
-2.41912
0.18821
2.61564
5.37671
8.0474
11.3631
14.6748
19.1745
23.9035
-2.47009
-0.486579
-2.21443
-1.30811
-1.73347
-0.899336
-0.613176
0.04423
0.636868
0.973565
1.73645
1.35655
2.18512
0.421153
2.33098
-1.91066
-2.21751
-2.69763
-2.20455
-2.03789
-1.2856
-0.706099
0.0564898
0.772345
1.38777
2.09817
2.29101
2.73447
2.17619
1.88807
-0.19874
-0.271463
-0.371657
-0.205613
-0.335882
-0.167802
-0.130323
0.0105919
0.135527
0.184939
0.346967
0.227315
0.371912
0.225769
0.172872
-0.177132
-0.365905
-0.432978
-0.342849
-0.369701
-0.242882
-0.144273
0.0118574
0.158962
0.264328
0.390069
0.364509
0.4288
0.321437
0.153252
-0.0392843
-0.105954
-0.0769637
-0.0225312
-0.0458646
-0.0303015
-0.0256971
0.00220719
0.027498
0.0373084
0.0584216
0.0364666
0.0715132
0.0746513
0.0212559
-0.045163
-0.109509
-0.0903893
-0.0466192
-0.0486598
-0.0397557
-0.0277535
0.000345673
0.0277156
0.044383
0.0584509
0.0539626
0.0774817
0.0764448
0.0271516
-0.026178
-0.0595058
-0.0312279
0.00522153
0.00777157
-9.72282e-05
-0.00491796
-0.000381278
0.00488533
0.00509066
0.00286405
0.00265648
0.0217245
0.0345377
0.0124182
-0.0277574
-0.0603627
-0.039434
-0.00599104
0.00266315
-0.00319997
-0.00677575
-0.00229546
0.00355243
0.00507483
0.00385144
0.0080434
0.0250218
0.0341654
0.0142203
-0.0215375
-0.0446745
-0.0251244
0.0045922
0.0141833
0.00685611
-0.000378259
-0.00131638
-0.000459924
-0.0025001
-0.00575494
-0.000979486
0.0139916
0.0236498
0.0106642
-0.0216443
-0.0455854
-0.0308127
-0.00337559
0.0085145
0.0039783
-0.00210693
-0.00280812
-0.00149694
-0.00248873
-0.00381431
0.00257964
0.016531
0.0238477
0.0109559
-0.0181256
-0.0377368
-0.0248002
-5.5113e-05
0.0119017
0.00806027
0.00100449
-0.00192426
-0.00269973
-0.00477828
-0.00601661
0.000298916
0.0128325
0.0193793
0.00913738
-0.0186733
-0.0397766
-0.0292644
-0.0053501
0.0080035
0.00616085
3.60445e-05
-0.00273896
-0.0032991
-0.00459453
-0.00442593
0.00283128
0.0150696
0.0203983
0.00947813
SCALARS Mach float 1
LOOKUP_TABLE default
30.0599
30.0603
30.0608
30.0617
30.0622
30.063
30.0631
30.0636
30.0633
30.0633
30.0627
30.0624
30.0616
30.0612
30.0607
29.5556
29.5555
29.5553
29.5551
29.5551
29.555
29.555
29.5551
29.5551
29.5552
29.5553
29.5554
29.5556
29.5559
29.556
30.1188
30.12
30.1214
30.1236
30.1247
30.1265
30.1267
30.1277
30.127
30.1271
30.1255
30.1246
30.1226
30.1214
30.1203
29.4816
29.4803
29.4785
29.4768
29.4756
29.475
29.4746
29.4745
29.4747
29.4751
29.4758
29.477
29.4787
29.4805
29.4818
30.2009
30.2063
30.2118
30.2205
30.2244
30.2312
30.2317
30.2353
30.2323
30.2323
30.2262
30.2228
30.2145
30.2094
30.2042
29.3776
29.3713
29.3634
29.358
29.3547
29.3542
29.3533
29.3541
29.3534
29.3546
29.3552
29.3586
29.3637
29.3715
29.3775
30.2734
30.3017
30.3268
30.364
30.3796
30.4063
30.4089
30.4217
30.4103
30.409
30.3836
30.3691
30.3333
30.3095
30.2822
29.2339
29.206
29.1835
29.1814
29.1833
29.197
29.2001
29.2095
29.2009
29.1987
29.1852
29.1843
29.1853
29.2066
29.2325
30.1534
30.3296
30.4243
30.5851
30.6509
30.7557
30.7716
30.8122
30.7746
30.7612
30.6599
30.5958
30.4391
30.3493
30.1793
28.8058
28.7446
28.8135
28.9408
29.0278
29.1618
29.211
29.2677
29.2143
29.1694
29.0358
28.9547
28.8248
28.7529
28.7962
28.9461
30.0687
30.2871
31.0305
31.3367
31.6757
31.7882
31.8725
31.7935
31.6852
31.3551
31.0509
30.3139
30.1049
29.0294
24.3604
27.2084
28.2441
29.3331
29.9277
30.6267
30.8736
31.0661
30.883
30.6496
29.9521
29.3754
28.2894
27.2966
24.3184
26.0603
28.0272
32.0861
33.2672
34.6179
34.7863
35.3815
35.1937
35.3894
34.8022
34.6441
33.3162
32.1441
28.0465
26.1811
48.7559
44.9304
45.1229
43.7261
43.8711
42.6848
42.9545
42.301
42.953
42.6625
43.8707
43.6643
45.0709
44.9509
49.6874
55.858
52.076
49.6919
47.552
46.7596
45.3727
45.2424
44.6418
45.2545
45.3851
46.7945
47.5484
49.7481
52.4457
56.8573
57.6862
54.4914
51.7478
49.7507
48.7852
47.6169
47.3442
46.8895
47.3693
47.6614
48.8576
49.8316
51.949
55.0317
58.6843
43.5997
44.9938
42.9285
42.9457
42.0323
42.0233
41.474
41.6153
41.4924
42.0332
42.0759
42.9353
43.0573
45.4653
45.3375
25.8632
32.4613
32.6707
34.7142
34.7182
35.983
35.6788
36.2821
35.6599
35.9485
34.6341
34.5578
32.5146
32.9219
27.5332
18.976
24.8789
27.7117
29.7618
30.5042
31.5945
31.6965
32.1059
31.6698
31.5589
30.3703
29.5976
27.5823
25.4669
20.1555
28.0556
29.6367
31.6273
32.242
32.5135
32.8167
32.8628
33.0081
32.8612
32.8075
32.4413
32.1388
31.7142
30.4132
29.5627
25.1467
26.6886
28.5048
29.4341
29.7725
30.0945
30.1897
30.321
30.1845
30.0698
29.6747
29.3196
28.6163
27.4422
26.505
27.9439
29.1493
30.6942
31.4485
31.6871
31.783
31.842
31.8863
31.8448
31.7624
31.602
31.3658
30.8885
29.9663
29.3244
26.4746
27.5966
29.0238
29.8547
30.1325
30.2305
30.2823
30.3231
30.2819
30.1988
30.0373
29.7811
29.2454
28.4049
27.7863
27.7434
28.7849
30.1276
30.9668
31.2614
31.3244
31.3572
31.3774
31.3555
31.2866
31.1652
30.9131
30.3893
29.6136
29.0393
26.9993
27.9712
29.2466
30.1069
30.4366
30.5072
30.5294
30.5439
30.5234
30.4607
30.3374
30.0684
29.5319
28.796
28.2536
27.6366
28.5551
29.7839
30.658
31.0192
31.0952
31.1076
31.1135
31.0969
31.0409
30.919
30.6359
30.094
29.3855
28.8699
27.2994
28.1658
29.3478
30.2282
30.6184
30.7071
30.7135
30.7132
30.6975
30.6456
30.5187
30.2215
29.6765
28.9931
28.5037
27.5978
28.4224
29.5675
30.4532
30.8702
30.9725
30.975
30.9686
30.9535
30.9041
30.7716
30.4614
29.9138
29.2498
28.7817
27.4988
28.2838
29.3919
30.2777
30.7175
30.834
30.8344
30.8227
30.8075
30.7595
30.6209
30.2999
29.7525
29.1077
28.66
27.6004
28.3523
29.4287
30.3135
30.7735
30.9051
30.9063
30.8903
30.8738
30.8252
30.6799
30.3492
29.8023
29.1738
28.7432
