# vtk DataFile Version 3.0
Structured Grid Example
ASCII
DATASET STRUCTURED_GRID
DIMENSIONS 15 30 1
POINTS 450 FLOAT
0.0833327 0.0333334 0
0.0833313 0.1 0
0.0833301 0.166667 0
0.083329 0.233333 0
0.0833281 0.3 0
0.0833274 0.366667 0
0.083327 0.433333 0
0.0833268 0.5 0
0.083327 0.566667 0
0.0833274 0.633333 0
0.0833281 0.7 0
0.083329 0.766667 0
0.0833301 0.833333 0
0.0833313 0.9 0
0.0833327 0.966667 0
0.249998 0.0333334 0
0.249993 0.1 0
0.249989 0.166667 0
0.249986 0.233334 0
0.249983 0.3 0
0.24998 0.366667 0
0.249979 0.433333 0
0.249979 0.5 0
0.249979 0.566667 0
0.24998 0.633333 0
0.249983 0.7 0
0.249986 0.766666 0
0.249989 0.833333 0
0.249993 0.9 0
0.249998 0.966667 0
0.416662 0.0333336 0
0.416654 0.100001 0
0.416646 0.166668 0
0.416639 0.233334 0
0.416633 0.300001 0
0.416628 0.366667 0
0.416626 0.433334 0
0.416625 0.5 0
0.416626 0.566666 0
0.416628 0.633333 0
0.416633 0.699999 0
0.416639 0.766666 0
0.416646 0.833332 0
0.416654 0.899999 0
0.416662 0.966666 0
0.583326 0.033334 0
0.58331 0.100002 0
0.583296 0.166669 0
0.583284 0.233336 0
0.583273 0.300003 0
0.583266 0.366669 0
0.583261 0.433335 0
0.583259 0.5 0
0.583261 0.566665 0
0.583266 0.633331 0
0.583273 0.699997 0
0.583284 0.766664 0
0.583296 0.833331 0
0.58331 0.899998 0
0.583326 0.966666 0
0.749987 0.0333351 0
0.749961 0.100005 0
0.749937 0.166674 0
0.749915 0.233342 0
0.749898 0.300008 0
0.749884 0.366673 0
0.749876 0.433337 0
0.749874 0.5 0
0.749876 0.566663 0
0.749884 0.633327 0
0.749898 0.699992 0
0.749915 0.766658 0
0.749937 0.833326 0
0.749961 0.899995 0
0.749987 0.966665 0
0.916644 0.033338 0
0.916601 0.100013 0
0.91656 0.166686 0
0.916524 0.233356 0
0.916494 0.300021 0
0.916472 0.366683 0
0.916458 0.433342 0
0.916454 0.5 0
0.916458 0.566658 0
0.916472 0.633317 0
0.916494 0.699979 0
0.916524 0.766644 0
0.91656 0.833314 0
0.916601 0.899987 0
0.916644 0.966662 0
1.0833 0.0333461 0
1.08322 0.100036 0
1.08315 0.166719 0
1.08309 0.233394 0
1.08304 0.300058 0
1.08301 0.366712 0
1.08298 0.433358 0
1.08298 0.5 0
1.08298 0.566642 0
1.08301 0.633288 0
1.08304 0.699942 0
1.08309 0.766606 0
1.08315 0.833281 0
1.08322 0.899964 0
1.0833 0.966654 0
1.24994 0.0333682 0
1.24981 0.100098 0
1.2497 0.16681 0
1.24959 0.233497 0
1.24951 0.300156 0
1.24945 0.366788 0
1.24942 0.433399 0
1.2494 0.5 0
1.24942 0.566601 0
1.24945 0.633212 0
1.24951 0.699844 0
1.24959 0.766503 0
1.2497 0.83319 0
1.24981 0.899902 0
1.24994 0.966632 0
1.41656 0.0334298 0
1.41634 0.10027 0
1.41615 0.16706 0
1.41598 0.233778 0
1.41585 0.300419 0
1.41575 0.36699 0
1.41569 0.433509 0
1.41567 0.5 0
1.41569 0.566491 0
1.41575 0.63301 0
1.41585 0.699581 0
1.41598 0.766222 0
1.41615 0.83294 0
1.41634 0.89973 0
1.41656 0.96657 0
1.58313 0.0336075 0
1.58275 0.10076 0
1.58242 0.167751 0
1.58215 0.234537 0
1.58195 0.301115 0
1.58181 0.367517 0
1.58173 0.433791 0
1.58171 0.5 0
1.58173 0.566209 0
1.58181 0.632483 0
1.58195 0.698885 0
1.58215 0.765463 0
1.58242 0.832249 0
1.58275 0.89924 0
1.58313 0.966392 0
1.74959 0.0341677 0
1.74885 0.102235 0
1.74829 0.169714 0
1.74791 0.236575 0
1.74766 0.302905 0
1.74751 0.368829 0
1.74744 0.434482 0
1.74741 0.5 0
1.74744 0.565518 0
1.74751 0.631171 0
1.74766 0.697095 0
1.74791 0.763425 0
1.74829 0.830286 0
1.74885 0.897765 0
1.74959 0.965832 0
1.91555 0.0363295 0
1.91388 0.107253 0
1.91312 0.175401 0
1.91283 0.241837 0
1.91276 0.307169 0
1.91277 0.371793 0
1.9128 0.435995 0
1.91281 0.5 0
1.9128 0.564005 0
1.91277 0.628207 0
1.91276 0.692831 0
1.91283 0.758163 0
1.91312 0.824599 0
1.91388 0.892747 0
1.91555 0.963671 0
2.07838 0.0591504 0
2.07417 0.125973 0
2.07554 0.190391 0
2.07663 0.253364 0
2.07743 0.315525 0
2.07798 0.377223 0
2.07829 0.438667 0
2.0784 0.5 0
2.07829 0.561333 0
2.07798 0.622777 0
2.07743 0.684475 0
2.07663 0.746636 0
2.07554 0.809609 0
2.07417 0.874027 0
2.07838 0.94085 0
2.24384 0.096456 0
2.23911 0.153168 0
2.24152 0.210396 0
2.24318 0.267878 0
2.24431 0.325632 0
2.24503 0.383617 0
2.24544 0.441767 0
2.24557 0.5 0
2.24544 0.558233 0
2.24503 0.616383 0
2.24431 0.674368 0
2.24318 0.732122 0
2.24152 0.789604 0
2.23911 0.846832 0
2.24384 0.903544 0
2.41462 0.118677 0
2.41292 0.170231 0
2.41356 0.223198 0
2.41406 0.277268 0
2.41444 0.332207 0
2.4147 0.387788 0
2.41485 0.44379 0
2.4149 0.5 0
2.41485 0.55621 0
2.4147 0.612212 0
2.41444 0.667793 0
2.41406 0.722732 0
2.41356 0.776802 0
2.41292 0.829769 0
2.41462 0.881323 0
2.58538 0.118677 0
2.58708 0.170231 0
2.58644 0.223198 0
2.58594 0.277268 0
2.58556 0.332207 0
2.5853 0.387788 0
2.58515 0.44379 0
2.5851 0.5 0
2.58515 0.55621 0
2.5853 0.612212 0
2.58556 0.667793 0
2.58594 0.722732 0
2.58644 0.776802 0
2.58708 0.829769 0
2.58538 0.881323 0
2.75616 0.096456 0
2.76089 0.153168 0
2.75848 0.210396 0
2.75682 0.267878 0
2.75569 0.325632 0
2.75497 0.383617 0
2.75456 0.441767 0
2.75443 0.5 0
2.75456 0.558233 0
2.75497 0.616383 0
2.75569 0.674368 0
2.75682 0.732122 0
2.75848 0.789604 0
2.76089 0.846832 0
2.75616 0.903544 0
2.92162 0.0591504 0
2.92583 0.125973 0
2.92446 0.190391 0
2.92337 0.253364 0
2.92257 0.315525 0
2.92202 0.377223 0
2.92171 0.438667 0
2.9216 0.5 0
2.92171 0.561333 0
2.92202 0.622777 0
2.92257 0.684475 0
2.92337 0.746636 0
2.92446 0.809609 0
2.92583 0.874027 0
2.92162 0.94085 0
3.08445 0.0363295 0
3.08612 0.107253 0
3.08688 0.175401 0
3.08717 0.241837 0
3.08724 0.307169 0
3.08723 0.371793 0
3.0872 0.435995 0
3.08719 0.5 0
3.0872 0.564005 0
3.08723 0.628207 0
3.08724 0.692831 0
3.08717 0.758163 0
3.08688 0.824599 0
3.08612 0.892747 0
3.08445 0.963671 0
3.25041 0.0341677 0
3.25115 0.102235 0
3.25171 0.169714 0
3.25209 0.236575 0
3.25234 0.302905 0
3.25249 0.368829 0
3.25256 0.434482 0
3.25259 0.5 0
3.25256 0.565518 0
3.25249 0.631171 0
3.25234 0.697095 0
3.25209 0.763425 0
3.25171 0.830286 0
3.25115 0.897765 0
3.25041 0.965832 0
3.41687 0.0336075 0
3.41725 0.10076 0
3.41758 0.167751 0
3.41785 0.234537 0
3.41805 0.301115 0
3.41819 0.367517 0
3.41827 0.433791 0
3.41829 0.5 0
3.41827 0.566209 0
3.41819 0.632483 0
3.41805 0.698885 0
3.41785 0.765463 0
3.41758 0.832249 0
3.41725 0.89924 0
3.41687 0.966392 0
3.58344 0.0334298 0
3.58366 0.10027 0
3.58385 0.16706 0
3.58402 0.233778 0
3.58415 0.300419 0
3.58425 0.36699 0
3.58431 0.433509 0
3.58433 0.5 0
3.58431 0.566491 0
3.58425 0.63301 0
3.58415 0.699581 0
3.58402 0.766222 0
3.58385 0.83294 0
3.58366 0.89973 0
3.58344 0.96657 0
3.75006 0.0333682 0
3.75019 0.100098 0
3.7503 0.16681 0
3.75041 0.233497 0
3.75049 0.300156 0
3.75055 0.366788 0
3.75058 0.433399 0
3.7506 0.5 0
3.75058 0.566601 0
3.75055 0.633212 0
3.75049 0.699844 0
3.75041 0.766503 0
3.7503 0.83319 0
3.75019 0.899902 0
3.75006 0.966632 0
3.9167 0.0333461 0
3.91678 0.100036 0
3.91685 0.166719 0
3.91691 0.233394 0
3.91696 0.300058 0
3.91699 0.366712 0
3.91702 0.433358 0
3.91702 0.5 0
3.91702 0.566642 0
3.91699 0.633288 0
3.91696 0.699942 0
3.91691 0.766606 0
3.91685 0.833281 0
3.91678 0.899964 0
3.9167 0.966654 0
4.08336 0.033338 0
4.0834 0.100013 0
4.08344 0.166686 0
4.08348 0.233356 0
4.08351 0.300021 0
4.08353 0.366683 0
4.08354 0.433342 0
4.08355 0.5 0
4.08354 0.566658 0
4.08353 0.633317 0
4.08351 0.699979 0
4.08348 0.766644 0
4.08344 0.833314 0
4.0834 0.899987 0
4.08336 0.966662 0
4.25001 0.0333351 0
4.25004 0.100005 0
4.25006 0.166674 0
4.25008 0.233342 0
4.2501 0.300008 0
4.25012 0.366673 0
4.25012 0.433337 0
4.25013 0.5 0
4.25012 0.566663 0
4.25012 0.633327 0
4.2501 0.699992 0
4.25008 0.766658 0
4.25006 0.833326 0
4.25004 0.899995 0
4.25001 0.966665 0
4.41667 0.033334 0
4.41669 0.100002 0
4.4167 0.166669 0
4.41672 0.233336 0
4.41673 0.300003 0
4.41673 0.366669 0
4.41674 0.433335 0
4.41674 0.5 0
4.41674 0.566665 0
4.41673 0.633331 0
4.41673 0.699997 0
4.41672 0.766664 0
4.4167 0.833331 0
4.41669 0.899998 0
4.41667 0.966666 0
4.58334 0.0333336 0
4.58335 0.100001 0
4.58335 0.166668 0
4.58336 0.233334 0
4.58337 0.300001 0
4.58337 0.366667 0
4.58337 0.433334 0
4.58338 0.5 0
4.58337 0.566666 0
4.58337 0.633333 0
4.58337 0.699999 0
4.58336 0.766666 0
4.58335 0.833332 0
4.58335 0.899999 0
4.58334 0.966666 0
4.75 0.0333334 0
4.75001 0.1 0
4.75001 0.166667 0
4.75001 0.233334 0
4.75002 0.3 0
4.75002 0.366667 0
4.75002 0.433333 0
4.75002 0.5 0
4.75002 0.566667 0
4.75002 0.633333 0
4.75002 0.7 0
4.75001 0.766666 0
4.75001 0.833333 0
4.75001 0.9 0
4.75 0.966667 0
4.91667 0.0333334 0
4.91667 0.1 0
4.91667 0.166667 0
4.91667 0.233333 0
4.91667 0.3 0
4.91667 0.366667 0
4.91667 0.433333 0
4.91667 0.5 0
4.91667 0.566667 0
4.91667 0.633333 0
4.91667 0.7 0
4.91667 0.766667 0
4.91667 0.833333 0
4.91667 0.9 0
4.91667 0.966667 0
POINT_DATA 450
SCALARS pressure float 1
LOOKUP_TABLE default
94469.3
94469.9
94471
94472.4
94473.9
94475.2
94476
94476.4
94476
94475.2
94473.9
94472.4
94471
94469.9
94469.3
94206.9
94206.4
94206.6
94206.2
94206.1
94205.9
94205.8
94205.8
94205.8
94205.9
94206.1
94206.2
94206.6
94206.4
94206.9
94545.3
94543.1
94540.3
94536
94531.8
94528.2
94525.5
94524.8
94525.5
94528.2
94531.9
94536.1
94540.4
94543.2
94545.4
94154.4
94150.7
94145.8
94137.9
94131.1
94124.1
94120.2
94118.1
94120.1
94124
94131.1
94137.9
94145.7
94150.6
94154.3
94636.5
94632.1
94625.1
94615.1
94605.5
94596.5
94590.8
94588.5
94590.8
94596.5
94605.5
94615.1
94625.1
94632.1
94636.6
94076.1
94070.4
94062.9
94049.5
94039.9
94027.1
94022.6
94017.6
94022.5
94026.9
94039.5
94049.1
94062.4
94069.8
94075.5
94739.7
94735
94727.5
94715.9
94706.2
94695.3
94690.3
94686.5
94690.3
94695.1
94706.1
94715.6
94727.2
94734.7
94739.4
93965
93955.2
93950.1
93929.5
93924.6
93904.5
93905.9
93894
93905.5
93903.7
93923.4
93928.2
93948.4
93953.4
93963.1
94885
94873.1
94866
94846.2
94839
94821.5
94820.9
94811.5
94820.7
94820.8
94838.4
94845.1
94865.1
94871.8
94883.8
93903.1
93838.6
93833.4
93754.6
93751.9
93691.9
93703.2
93668.8
93702.1
93690
93748.7
93750.9
93828.5
93833.3
93897.6
95270.6
95131.6
95096.2
94990
94962.1
94895
94893.4
94862
94893
94892.8
94960.8
94985.9
95094.2
95126.5
95267.8
94560.5
93802.5
93764.3
93352
93306.5
93112.3
93108.6
93037.9
93106.2
93108.7
93299.1
93343.9
93751.4
93788
94541.7
96090.1
95451.1
95046
94756.1
94619.1
94489.5
94454.7
94415.5
94454.2
94483.8
94617.9
94742.7
95045.6
95426.2
96090.6
89129.3
90208.3
89825.7
90518.9
90316.5
90750.7
90559
90833.3
90558.7
90755.4
90315.6
90531
89824.5
90234.7
89121
90207.7
91517.5
91408.7
92231.6
92070.7
92593
92364.5
92703.7
92361.1
92596
92059.9
92238.7
91389.5
91530.9
90171.8
87370.5
88848.1
88626.7
89611.7
89372
90029.5
89716.9
90161.2
89710
90025.9
89350
89601.5
88586.2
88822.9
87295.8
91761.3
92522.5
92292.4
92846.4
92625.4
93037.3
92781.7
93100.1
92776
93040.4
92606.8
92851.8
92255.8
92525.6
91697.6
93228.7
92714.6
92586.9
92410.7
92290.9
92295.9
92179.6
92271
92176.7
92312.6
92282.1
92448.5
92568.9
92786.4
93223.2
96839.4
95813.3
95639.7
95164
95032
94839.6
94777.8
94745.1
94784.3
94852.2
95053.8
95189.5
95683
95851.4
96938.9
92985.2
93065
93049.1
93091
93072.7
93106.1
93080.7
93111.9
93079.6
93107.5
93069.3
93092.1
93042.6
93062.4
92976.2
95092.9
95016.2
94985.8
94905.3
94881.8
94833.8
94828.2
94811.7
94830.5
94838.1
94888.7
94913.1
94996.1
95026
95105.6
93492.7
93500.3
93507.1
93521.2
93528.6
93542.5
93544
93551.5
93543.8
93542.6
93528
93521
93506.3
93499.9
93492.1
94603.4
94598.3
94597.1
94590
94589.9
94585.1
94586.6
94584.1
94587.2
94586.1
94591.4
94591.6
94598.9
94600
94605.1
93778
93777.7
93779.4
93780.5
93781.5
93783.3
93783.1
93784.5
93783.2
93783.4
93781.6
93780.7
93779.6
93778.1
93778.5
94417.4
94413.6
94410.1
94403.6
94398.3
94392.9
94389.6
94388.4
94389.6
94393
94398.4
94403.7
94410.2
94413.7
94417.3
93944.1
93939.8
93934.6
93926.1
93918
93910.8
93905.6
93904.3
93905.6
93910.9
93918.2
93926.4
93934.9
93940.3
93944.6
94330.2
94325.1
94317.9
94307.1
94296.8
94287.4
94281
94278.9
94281
94287.3
94296.7
94306.9
94317.7
94324.9
94330
94019
94014.9
94008.5
93999.1
93990
93981.7
93976.2
93974.3
93976.2
93981.8
93990.2
93999.4
94008.8
94015.4
94019.6
94272.9
94269.9
94265
94258
94251.2
94244.9
94240.9
94239.4
94240.9
94244.9
94251.2
94258
94264.9
94269.9
94272.9
94030.8
94029.9
94028.2
94025.6
94023.1
94020.7
94019.3
94018.7
94019.4
94020.9
94023.5
94026.1
94028.7
94030.6
94031.6
SCALARS density float 1
LOOKUP_TABLE default
1.21455
1.21456
1.21457
1.21459
1.2146
1.21461
1.21462
1.21462
1.21462
1.21461
1.2146
1.21459
1.21457
1.21456
1.21456
1.21213
1.21213
1.21213
1.21213
1.21213
1.21213
1.21212
1.21213
1.21212
1.21213
1.21213
1.21213
1.21213
1.21213
1.21213
1.21524
1.21522
1.21519
1.21515
1.21512
1.21508
1.21506
1.21505
1.21506
1.21508
1.21512
1.21516
1.21519
1.21522
1.21524
1.21165
1.21162
1.21157
1.2115
1.21144
1.21138
1.21134
1.21132
1.21134
1.21138
1.21144
1.2115
1.21157
1.21162
1.21165
1.21608
1.21604
1.21597
1.21588
1.21579
1.21571
1.21566
1.21564
1.21566
1.21571
1.21579
1.21588
1.21597
1.21604
1.21608
1.21094
1.21089
1.21082
1.2107
1.21062
1.2105
1.21046
1.21041
1.21046
1.2105
1.21061
1.2107
1.21082
1.21089
1.21094
1.21701
1.21696
1.2169
1.21679
1.2167
1.2166
1.21656
1.21652
1.21656
1.2166
1.2167
1.21679
1.2169
1.21696
1.21701
1.20998
1.20989
1.20985
1.20966
1.20962
1.20943
1.20945
1.20934
1.20945
1.20943
1.20961
1.20965
1.20983
1.20988
1.20996
1.21821
1.21811
1.21806
1.21789
1.21784
1.21768
1.21767
1.21759
1.21767
1.21767
1.21783
1.21789
1.21805
1.2181
1.21821
1.20977
1.20917
1.20908
1.20832
1.20827
1.20771
1.20781
1.20749
1.2078
1.20769
1.20824
1.20828
1.20903
1.20913
1.20972
1.22077
1.21972
1.21958
1.21876
1.21859
1.21803
1.21804
1.21776
1.21803
1.21801
1.21859
1.21873
1.21957
1.21968
1.22076
1.21858
1.21064
1.20977
1.20554
1.20491
1.20293
1.20284
1.20214
1.20282
1.2029
1.20483
1.20545
1.20964
1.2105
1.2184
1.22558
1.22081
1.21782
1.21579
1.2148
1.21382
1.21357
1.21326
1.21357
1.21377
1.2148
1.21569
1.21783
1.22054
1.22557
1.16438
1.17503
1.17116
1.17779
1.1759
1.18004
1.17824
1.18083
1.17824
1.18009
1.17589
1.1779
1.17113
1.17541
1.16494
1.17545
1.18817
1.18666
1.19424
1.19259
1.19744
1.19526
1.19842
1.19523
1.19747
1.19249
1.1943
1.18649
1.18851
1.17565
1.14718
1.1616
1.15948
1.16874
1.16651
1.17271
1.16983
1.17398
1.16977
1.17268
1.1663
1.16863
1.15913
1.1616
1.14699
1.18879
1.19641
1.19456
1.19966
1.19772
1.20149
1.19921
1.20209
1.19916
1.20152
1.19755
1.19969
1.19425
1.19669
1.18913
1.2017
1.19776
1.19689
1.19506
1.19396
1.19394
1.19294
1.19372
1.19292
1.1941
1.19388
1.19537
1.19675
1.19886
1.20297
1.2327
1.22521
1.22452
1.22043
1.21929
1.2176
1.21711
1.21681
1.21717
1.21771
1.21946
1.22058
1.22495
1.22605
1.23484
1.19858
1.20015
1.20075
1.20136
1.20121
1.20154
1.20135
1.20164
1.20135
1.20154
1.20114
1.20129
1.20076
1.20066
1.19958
1.21803
1.21804
1.2185
1.21805
1.21788
1.21746
1.21746
1.21732
1.21748
1.21749
1.21789
1.21805
1.2187
1.2187
1.21921
1.20349
1.20416
1.20489
1.20535
1.20547
1.20561
1.20565
1.20573
1.20565
1.20559
1.20541
1.20528
1.20502
1.20474
1.20449
1.21373
1.21424
1.21488
1.21517
1.21524
1.2152
1.21524
1.21523
1.21525
1.21519
1.21519
1.21513
1.21506
1.21485
1.21473
1.20622
1.20672
1.20735
1.20773
1.20784
1.20786
1.20787
1.20789
1.20787
1.20783
1.20777
1.20769
1.20754
1.20732
1.20717
1.2121
1.21254
1.2131
1.21342
1.21349
1.21345
1.21342
1.21342
1.21342
1.21342
1.21342
1.21339
1.2133
1.21314
1.21302
1.20784
1.20823
1.20876
1.20907
1.20914
1.20909
1.20904
1.20903
1.20903
1.20905
1.20906
1.20905
1.20898
1.20884
1.20874
1.2113
1.21166
1.21214
1.21243
1.21249
1.21242
1.21236
1.21234
1.21235
1.21238
1.21241
1.21242
1.21237
1.21226
1.21217
1.20874
1.20909
1.20957
1.20989
1.20997
1.20993
1.20987
1.20985
1.20985
1.20988
1.2099
1.20989
1.20982
1.2097
1.20961
1.21043
1.21077
1.21124
1.21157
1.21168
1.21166
1.21161
1.21159
1.21159
1.2116
1.21161
1.21158
1.21149
1.21137
1.21128
1.2097
1.21005
1.21053
1.21091
1.21108
1.2111
1.21108
1.21107
1.21106
1.21104
1.21101
1.21093
1.2108
1.21065
1.21054
SCALARS u-velocity float 1
LOOKUP_TABLE default
99.6094
99.608
99.6049
99.601
99.5966
99.593
99.5902
99.5896
99.5905
99.5935
99.5974
99.602
99.6061
99.6093
99.6108
98.7482
98.7466
98.743
98.7387
98.7344
98.7305
98.7283
98.7272
98.7284
98.7307
98.7347
98.7391
98.7434
98.7471
98.7486
99.6964
99.6994
99.7021
99.7071
99.71
99.7139
99.7151
99.7168
99.7155
99.7147
99.7112
99.7086
99.704
99.7015
99.6986
98.5979
98.5981
98.5982
98.6
98.6026
98.6054
98.6076
98.6083
98.6077
98.6056
98.6028
98.6003
98.5983
98.5983
98.598
99.8228
99.8352
99.8498
99.8718
99.8857
99.9036
99.909
99.9165
99.91
99.9055
99.8884
99.8753
99.854
99.84
99.828
98.407
98.4001
98.3934
98.3929
98.3961
98.403
98.4067
98.4099
98.4069
98.4036
98.3967
98.3937
98.3937
98.4001
98.4065
99.9506
100
100.047
100.116
100.149
100.2
100.209
100.232
100.211
100.205
100.156
100.124
100.058
100.013
99.965
98.1685
98.1221
98.088
98.0878
98.0955
98.1217
98.1298
98.1461
98.131
98.1245
98.0986
98.0924
98.0908
98.1229
98.1659
99.7839
100.074
100.23
100.493
100.601
100.773
100.799
100.865
100.804
100.782
100.616
100.511
100.254
100.106
99.8266
97.4551
97.344
97.4579
97.6638
97.8081
98.0269
98.1091
98.2015
98.1146
98.0398
97.8215
97.6872
97.477
97.3578
97.4387
97.8243
99.6767
100.021
101.226
101.719
102.262
102.445
102.578
102.453
102.278
101.749
101.26
100.066
99.7367
97.9642
89.6207
94.6167
96.4299
98.2272
99.2391
100.381
100.793
101.103
100.808
100.419
99.2804
98.2998
96.5075
94.7702
89.5422
90.0158
94.2168
101.743
104.029
106.529
106.977
108.018
107.766
108.034
107.009
106.584
104.122
101.872
94.2862
90.2966
123.82
120.305
120.887
119.448
119.759
118.282
118.682
117.817
118.683
118.257
119.765
119.376
120.835
120.359
124.993
134.827
130.575
127.563
124.974
123.931
122.167
121.983
121.208
122
122.186
123.977
124.974
127.634
131.036
135.998
136.992
133.254
130.019
127.579
126.38
124.928
124.555
124.001
124.586
124.981
126.469
127.672
130.26
133.887
138.139
117.88
120.311
118.197
118.467
117.439
117.549
116.822
117.066
116.844
117.551
117.485
118.418
118.333
120.846
120.129
89.3292
101.722
102.681
106.318
106.58
108.685
108.299
109.247
108.265
108.615
106.435
106.029
102.395
102.321
92.1823
79.3056
90.7412
95.7085
99.1561
100.361
102.128
102.284
102.941
102.242
102.071
100.143
98.8853
95.4884
91.8015
81.7251
96.1687
98.8182
102.047
103.033
103.456
103.941
104.01
104.242
104.007
103.926
103.34
102.868
102.184
100.095
98.696
91.2109
93.9401
97.057
98.603
99.1534
99.6733
99.8226
100.035
99.8141
99.6329
98.9919
98.413
97.2456
95.247
93.6219
96.0241
98.0561
100.598
101.811
102.185
102.33
102.419
102.488
102.423
102.297
102.049
101.678
100.914
99.409
98.3466
93.53
95.4776
97.8968
99.2744
99.7275
99.883
99.965
100.03
99.9643
99.8311
99.5713
99.1533
98.2669
96.8542
95.7996
95.6674
97.4374
99.6705
101.042
101.519
101.62
101.674
101.706
101.671
101.56
101.364
100.955
100.099
98.8179
97.8572
94.4083
96.0865
98.2442
99.6762
100.223
100.343
100.383
100.407
100.373
100.267
100.061
99.6131
98.7179
97.4809
96.5583
95.4739
97.0436
99.1047
100.55
101.146
101.277
101.303
101.314
101.286
101.19
100.984
100.514
99.6145
98.4323
97.563
94.9187
96.41
98.4089
99.8762
100.525
100.68
100.696
100.698
100.67
100.58
100.363
99.8652
98.9534
97.8035
96.9723
95.4131
96.824
98.7511
100.219
100.908
101.082
101.091
101.082
101.056
100.971
100.748
100.232
99.3224
98.2109
97.4208
95.2824
96.627
98.4952
99.9645
100.688
100.883
100.886
100.868
100.842
100.762
100.532
100.001
99.0919
98.0119
97.2562
95.4194
96.7024
98.5108
99.9714
100.722
100.936
100.937
100.912
100.885
100.807
100.57
100.03
99.1285
98.0812
97.3579
SCALARS v-velocity float 1
LOOKUP_TABLE default
-0.00158947
-0.0040717
-0.0060236
-0.00684055
-0.00648892
-0.00511255
-0.00285986
-0.000192808
0.00248377
0.0047573
0.00617193
0.00657326
0.00582072
0.00394407
0.00154611
-0.00497882
-0.0133967
-0.0199798
-0.0230659
-0.0219603
-0.0172504
-0.00919219
0.000373919
0.00992464
0.0179378
0.0225755
0.02358
0.020372
0.01364
0.00506367
-0.00682021
-0.016999
-0.026138
-0.0288869
-0.0280122
-0.0214882
-0.0119582
-0.000200531
0.0115728
0.021112
0.0276707
0.0285849
0.0258954
0.0168436
0.0067604
-0.00126969
-0.00500907
-0.00777603
-0.00962158
-0.00955688
-0.00743071
-0.00362741
0.0011379
0.00584841
0.00953141
0.0114427
0.0112203
0.00901384
0.00578834
0.00154604
-0.0035878
-0.00783435
-0.0118433
-0.010657
-0.0102603
-0.00672463
-0.00395448
-0.000209126
0.00358079
0.00629421
0.00983623
0.0102053
0.0113941
0.00752449
0.00343409
0.0186547
0.0380676
0.0573583
0.059285
0.0560956
0.0425766
0.0245249
0.00310484
-0.0185045
-0.0367977
-0.0508807
-0.0547577
-0.0537192
-0.03571
-0.0177631
0.00285118
0.012861
0.0278149
0.0384454
0.0412199
0.0344774
0.0200182
0.000442555
-0.0189239
-0.0338929
-0.0408289
-0.0386091
-0.028583
-0.0135984
-0.00345087
0.0859933
0.152568
0.223989
0.228316
0.212054
0.159487
0.0886819
0.00790939
-0.0735689
-0.14453
-0.198521
-0.216163
-0.213549
-0.145205
-0.0827017
0.029223
0.1312
0.221472
0.245629
0.248454
0.19145
0.111086
0.00443213
-0.100904
-0.184174
-0.241819
-0.242068
-0.221443
-0.133486
-0.0333377
0.390618
0.544097
0.746221
0.792479
0.660385
0.51343
0.263102
0.0179316
-0.230193
-0.47884
-0.62956
-0.76342
-0.72072
-0.521896
-0.374427
1.12518
1.74697
2.06151
1.95953
1.7195
1.23373
0.662655
0.0208804
-0.613065
-1.19603
-1.67899
-1.93308
-2.03844
-1.74413
-1.15618
-0.307279
3.37678
2.53459
3.09914
2.05258
1.71751
0.776524
0.035139
-0.717367
-1.6502
-2.00001
-3.04167
-2.5059
-3.35595
0.344976
23.1086
19.9624
16.0063
12.934
9.07277
6.14448
2.96041
0.0663588
-2.80007
-6.00884
-8.89158
-12.7972
-15.7814
-19.7897
-22.8799
25.1294
16.0671
13.1699
8.69268
6.62622
3.84437
2.04811
0.0750807
-1.90735
-3.69114
-6.48583
-8.52335
-13.0025
-15.8688
-25.2988
11.4083
7.1018
6.75721
4.16227
3.73067
2.00528
1.21669
0.0684254
-1.13263
-1.87424
-3.67415
-4.0427
-6.75565
-7.06564
-11.6401
-8.23022
-8.56222
-4.68872
-4.80368
-2.38154
-2.10046
-0.681976
0.125931
0.860916
2.35438
2.56489
5.0692
4.89124
8.85051
8.4609
-20.8541
-18.1196
-12.1217
-10.0677
-6.21353
-4.39665
-1.8398
0.155758
2.06258
4.7315
6.46947
10.4823
12.4966
18.785
21.5295
-23.314
-18.395
-14.4136
-10.8528
-7.82559
-4.96005
-2.40961
0.188225
2.6062
5.3599
8.02498
11.3405
14.6536
19.1615
23.8967
-2.46694
-0.478362
-2.19979
-1.29267
-1.71715
-0.88742
-0.606087
0.0443407
0.630015
0.96186
1.72033
1.34128
2.17057
0.412949
2.32777
-1.91314
-2.22394
-2.70491
-2.21368
-2.04469
-1.29162
-0.708672
0.0566497
0.775258
1.39409
2.10525
2.30037
2.7419
2.18268
1.89057
-0.20671
-0.293324
-0.402571
-0.242404
-0.369377
-0.194997
-0.144439
0.0107989
0.150061
0.21252
0.380809
0.264394
0.403032
0.247772
0.180897
-0.191518
-0.404242
-0.489059
-0.408287
-0.430808
-0.291648
-0.170194
0.0120878
0.185345
0.313529
0.451573
0.430287
0.485166
0.360011
0.167738
-0.0583889
-0.156206
-0.151737
-0.108986
-0.127662
-0.0950471
-0.0604997
0.00245167
0.0627873
0.102521
0.140646
0.123309
0.146645
0.125217
0.0404991
-0.0660268
-0.163906
-0.172226
-0.140493
-0.138201
-0.110147
-0.065856
0.000590262
0.0663026
0.115244
0.148426
0.148243
0.159715
0.131188
0.0481702
-0.0456573
-0.109886
-0.107796
-0.0819014
-0.0759842
-0.0654872
-0.0405435
-0.000145803
0.0409746
0.0709318
0.0870386
0.0901778
0.098683
0.0852444
0.0320414
-0.0429858
-0.0992674
-0.0993363
-0.0734201
-0.0627898
-0.0538429
-0.0345795
-0.00207648
0.0317844
0.0561311
0.0696849
0.075827
0.0852558
0.0733272
0.0295588
-0.0312553
-0.0689337
-0.0632738
-0.037551
-0.0273707
-0.0248086
-0.0179818
-0.00112982
0.0175059
0.0295079
0.0361066
0.0414295
0.0523597
0.04805
0.0204377
-0.025678
-0.0550614
-0.0465562
-0.0198867
-0.00845003
-0.00840507
-0.00921134
-0.00263816
0.00593588
0.0101972
0.0134101
0.0192854
0.0323948
0.0333633
0.0149992
-0.0186182
-0.0381963
-0.0265832
-0.00086072
0.0102296
0.00750207
0.000405311
-0.00179409
-0.00184887
-0.00399263
-0.00415487
0.00122469
0.0146553
0.0198093
0.00960941
-0.0179262
-0.0374011
-0.0261105
-0.00110148
0.0116753
0.00940455
0.00165556
-0.00268963
-0.00482062
-0.0077491
-0.0080194
-0.00138057
0.011897
0.0179603
0.00869758
SCALARS Mach float 1
LOOKUP_TABLE default
30.0677
30.0668
30.0649
30.0625
30.0598
30.0575
30.0558
30.0555
30.056
30.0579
30.0603
30.0631
30.0656
30.0676
30.0685
29.5615
29.5607
29.5585
29.556
29.5534
29.5511
29.5498
29.5491
29.5498
29.5512
29.5536
29.5562
29.5587
29.5609
29.5618
30.1165
30.1185
30.1203
30.1235
30.1254
30.128
30.1288
30.1299
30.1291
30.1285
30.1262
30.1244
30.1214
30.1198
30.1179
29.4741
29.4743
29.4746
29.4761
29.4779
29.48
29.4815
29.4819
29.4815
29.4801
29.4781
29.4762
29.4747
29.4744
29.4741
30.1888
30.1965
30.2057
30.2195
30.2284
30.2396
30.2431
30.2478
30.2437
30.2407
30.23
30.2216
30.2083
30.1995
30.192
29.3636
29.3598
29.3562
29.3565
29.3589
29.3636
29.366
29.3681
29.3661
29.3639
29.3593
29.357
29.3564
29.3598
29.3634
30.2613
30.2915
30.3205
30.3628
30.3834
30.4148
30.4203
30.4343
30.4216
30.4174
30.3873
30.3678
30.3269
30.2992
30.27
29.2271
29.2001
29.1801
29.1809
29.1857
29.2022
29.2069
29.2171
29.2076
29.2039
29.1876
29.1837
29.1819
29.2006
29.2257
30.1522
30.3282
30.4237
30.5849
30.6512
30.7565
30.7725
30.8135
30.7755
30.762
30.6601
30.5955
30.4385
30.3479
30.1782
28.8113
28.7489
28.8167
28.9419
29.0267
29.1587
29.2065
29.2629
29.2098
29.1664
29.0347
28.9558
28.8281
28.7573
28.8018
28.9551
30.0763
30.2922
31.0317
31.334
31.6692
31.7793
31.8627
31.7846
31.6788
31.3525
31.0522
30.3191
30.1127
29.0384
24.3685
27.216
28.2483
29.3333
29.9233
30.6182
30.8624
31.0538
30.8718
30.6411
29.9477
29.3757
28.2938
27.3044
24.3266
26.0689
28.0348
32.0912
33.2685
34.6154
34.7803
35.3732
35.1846
35.3811
34.7962
34.6416
33.3176
32.1493
28.0542
26.1898
48.7623
44.9348
45.1258
43.7271
43.871
42.6833
42.9526
42.2987
42.9511
42.6611
43.8706
43.6653
45.0739
44.9555
49.6939
55.8561
52.0744
49.6905
47.5513
46.7597
45.3734
45.2436
44.6431
45.2557
45.3858
46.7946
47.5478
49.7467
52.4442
56.8555
57.6799
54.4864
51.7447
49.7494
48.7858
47.619
47.3473
46.893
47.3725
47.6635
48.8583
49.8304
51.946
55.0268
58.6783
43.5935
44.9885
42.9253
42.9443
42.0329
42.0258
41.4775
41.6193
41.4959
42.0357
42.0767
42.934
43.0543
45.4602
45.3316
25.8621
32.4603
32.6695
34.7128
34.7165
35.9815
35.6771
36.2808
35.6582
35.9471
34.6325
34.5565
32.5136
32.9212
27.5324
18.9831
24.8857
27.716
29.7624
30.5008
31.5875
31.687
32.0956
31.6604
31.5518
30.3669
29.5984
27.5869
25.4741
20.163
28.0738
29.6521
31.6379
32.2455
32.5099
32.8064
32.8481
32.9918
32.8465
32.7972
32.4377
32.1425
31.7251
30.4291
29.5817
25.1644
26.7038
28.5154
29.4379
29.7693
30.0844
30.1754
30.3049
30.1702
30.0598
29.6715
29.3234
28.6272
27.4579
26.5234
27.9596
29.1627
30.7029
31.4506
31.6826
31.7722
31.8273
31.8697
31.8301
31.7516
31.5976
31.3681
30.8975
29.9801
29.3406
26.4817
27.6026
29.027
29.8543
30.1284
30.2227
30.2725
30.3121
30.2721
30.191
30.0332
29.7807
29.2487
28.4112
27.7936
27.7413
28.7833
30.1254
30.9646
31.259
31.3216
31.3546
31.3744
31.3528
31.2838
31.1627
30.9109
30.3872
29.612
29.0371
26.9898
27.9635
29.2408
30.1044
30.4373
30.5107
30.5351
30.5501
30.5291
30.4643
30.3381
30.0659
29.5259
28.7881
28.2439
27.6232
28.5444
29.7771
30.657
31.0239
31.1052
31.1212
31.1282
31.1105
31.0509
30.9236
30.6348
30.087
29.3745
28.8561
27.2859
28.1551
29.3416
30.2285
30.6252
30.72
30.7302
30.7314
30.7142
30.6584
30.5254
30.2217
29.6701
28.982
28.4898
27.5874
28.4141
29.5632
30.4543
30.8767
30.9841
30.9898
30.9847
30.9683
30.9157
30.778
30.4624
29.9093
29.2412
28.7709
27.494
28.2798
29.3904
30.279
30.7218
30.8411
30.8433
30.8324
30.8163
30.7665
30.6252
30.3011
29.7507
29.1035
28.6549
27.6003
28.3517
29.4282
30.3124
30.7721
30.9035
30.9043
30.8883
30.8717
30.8234
30.6784
30.348
29.8016
29.1731
28.743
