# vtk DataFile Version 3.0
Structured Grid Example
ASCII
DATASET STRUCTURED_GRID
DIMENSIONS 15 30 1
POINTS 450 FLOAT
0.0833327 0.0333334 0
0.0833313 0.1 0
0.0833301 0.166667 0
0.083329 0.233333 0
0.0833281 0.3 0
0.0833274 0.366667 0
0.083327 0.433333 0
0.0833268 0.5 0
0.083327 0.566667 0
0.0833274 0.633333 0
0.0833281 0.7 0
0.083329 0.766667 0
0.0833301 0.833333 0
0.0833313 0.9 0
0.0833327 0.966667 0
0.249998 0.0333334 0
0.249993 0.1 0
0.249989 0.166667 0
0.249986 0.233334 0
0.249983 0.3 0
0.24998 0.366667 0
0.249979 0.433333 0
0.249979 0.5 0
0.249979 0.566667 0
0.24998 0.633333 0
0.249983 0.7 0
0.249986 0.766666 0
0.249989 0.833333 0
0.249993 0.9 0
0.249998 0.966667 0
0.416662 0.0333336 0
0.416654 0.100001 0
0.416646 0.166668 0
0.416639 0.233334 0
0.416633 0.300001 0
0.416628 0.366667 0
0.416626 0.433334 0
0.416625 0.5 0
0.416626 0.566666 0
0.416628 0.633333 0
0.416633 0.699999 0
0.416639 0.766666 0
0.416646 0.833332 0
0.416654 0.899999 0
0.416662 0.966666 0
0.583326 0.033334 0
0.58331 0.100002 0
0.583296 0.166669 0
0.583284 0.233336 0
0.583273 0.300003 0
0.583266 0.366669 0
0.583261 0.433335 0
0.583259 0.5 0
0.583261 0.566665 0
0.583266 0.633331 0
0.583273 0.699997 0
0.583284 0.766664 0
0.583296 0.833331 0
0.58331 0.899998 0
0.583326 0.966666 0
0.749987 0.0333351 0
0.749961 0.100005 0
0.749937 0.166674 0
0.749915 0.233342 0
0.749898 0.300008 0
0.749884 0.366673 0
0.749876 0.433337 0
0.749874 0.5 0
0.749876 0.566663 0
0.749884 0.633327 0
0.749898 0.699992 0
0.749915 0.766658 0
0.749937 0.833326 0
0.749961 0.899995 0
0.749987 0.966665 0
0.916644 0.033338 0
0.916601 0.100013 0
0.91656 0.166686 0
0.916524 0.233356 0
0.916494 0.300021 0
0.916472 0.366683 0
0.916458 0.433342 0
0.916454 0.5 0
0.916458 0.566658 0
0.916472 0.633317 0
0.916494 0.699979 0
0.916524 0.766644 0
0.91656 0.833314 0
0.916601 0.899987 0
0.916644 0.966662 0
1.0833 0.0333461 0
1.08322 0.100036 0
1.08315 0.166719 0
1.08309 0.233394 0
1.08304 0.300058 0
1.08301 0.366712 0
1.08298 0.433358 0
1.08298 0.5 0
1.08298 0.566642 0
1.08301 0.633288 0
1.08304 0.699942 0
1.08309 0.766606 0
1.08315 0.833281 0
1.08322 0.899964 0
1.0833 0.966654 0
1.24994 0.0333682 0
1.24981 0.100098 0
1.2497 0.16681 0
1.24959 0.233497 0
1.24951 0.300156 0
1.24945 0.366788 0
1.24942 0.433399 0
1.2494 0.5 0
1.24942 0.566601 0
1.24945 0.633212 0
1.24951 0.699844 0
1.24959 0.766503 0
1.2497 0.83319 0
1.24981 0.899902 0
1.24994 0.966632 0
1.41656 0.0334298 0
1.41634 0.10027 0
1.41615 0.16706 0
1.41598 0.233778 0
1.41585 0.300419 0
1.41575 0.36699 0
1.41569 0.433509 0
1.41567 0.5 0
1.41569 0.566491 0
1.41575 0.63301 0
1.41585 0.699581 0
1.41598 0.766222 0
1.41615 0.83294 0
1.41634 0.89973 0
1.41656 0.96657 0
1.58313 0.0336075 0
1.58275 0.10076 0
1.58242 0.167751 0
1.58215 0.234537 0
1.58195 0.301115 0
1.58181 0.367517 0
1.58173 0.433791 0
1.58171 0.5 0
1.58173 0.566209 0
1.58181 0.632483 0
1.58195 0.698885 0
1.58215 0.765463 0
1.58242 0.832249 0
1.58275 0.89924 0
1.58313 0.966392 0
1.74959 0.0341677 0
1.74885 0.102235 0
1.74829 0.169714 0
1.74791 0.236575 0
1.74766 0.302905 0
1.74751 0.368829 0
1.74744 0.434482 0
1.74741 0.5 0
1.74744 0.565518 0
1.74751 0.631171 0
1.74766 0.697095 0
1.74791 0.763425 0
1.74829 0.830286 0
1.74885 0.897765 0
1.74959 0.965832 0
1.91555 0.0363295 0
1.91388 0.107253 0
1.91312 0.175401 0
1.91283 0.241837 0
1.91276 0.307169 0
1.91277 0.371793 0
1.9128 0.435995 0
1.91281 0.5 0
1.9128 0.564005 0
1.91277 0.628207 0
1.91276 0.692831 0
1.91283 0.758163 0
1.91312 0.824599 0
1.91388 0.892747 0
1.91555 0.963671 0
2.07838 0.0591504 0
2.07417 0.125973 0
2.07554 0.190391 0
2.07663 0.253364 0
2.07743 0.315525 0
2.07798 0.377223 0
2.07829 0.438667 0
2.0784 0.5 0
2.07829 0.561333 0
2.07798 0.622777 0
2.07743 0.684475 0
2.07663 0.746636 0
2.07554 0.809609 0
2.07417 0.874027 0
2.07838 0.94085 0
2.24384 0.096456 0
2.23911 0.153168 0
2.24152 0.210396 0
2.24318 0.267878 0
2.24431 0.325632 0
2.24503 0.383617 0
2.24544 0.441767 0
2.24557 0.5 0
2.24544 0.558233 0
2.24503 0.616383 0
2.24431 0.674368 0
2.24318 0.732122 0
2.24152 0.789604 0
2.23911 0.846832 0
2.24384 0.903544 0
2.41462 0.118677 0
2.41292 0.170231 0
2.41356 0.223198 0
2.41406 0.277268 0
2.41444 0.332207 0
2.4147 0.387788 0
2.41485 0.44379 0
2.4149 0.5 0
2.41485 0.55621 0
2.4147 0.612212 0
2.41444 0.667793 0
2.41406 0.722732 0
2.41356 0.776802 0
2.41292 0.829769 0
2.41462 0.881323 0
2.58538 0.118677 0
2.58708 0.170231 0
2.58644 0.223198 0
2.58594 0.277268 0
2.58556 0.332207 0
2.5853 0.387788 0
2.58515 0.44379 0
2.5851 0.5 0
2.58515 0.55621 0
2.5853 0.612212 0
2.58556 0.667793 0
2.58594 0.722732 0
2.58644 0.776802 0
2.58708 0.829769 0
2.58538 0.881323 0
2.75616 0.096456 0
2.76089 0.153168 0
2.75848 0.210396 0
2.75682 0.267878 0
2.75569 0.325632 0
2.75497 0.383617 0
2.75456 0.441767 0
2.75443 0.5 0
2.75456 0.558233 0
2.75497 0.616383 0
2.75569 0.674368 0
2.75682 0.732122 0
2.75848 0.789604 0
2.76089 0.846832 0
2.75616 0.903544 0
2.92162 0.0591504 0
2.92583 0.125973 0
2.92446 0.190391 0
2.92337 0.253364 0
2.92257 0.315525 0
2.92202 0.377223 0
2.92171 0.438667 0
2.9216 0.5 0
2.92171 0.561333 0
2.92202 0.622777 0
2.92257 0.684475 0
2.92337 0.746636 0
2.92446 0.809609 0
2.92583 0.874027 0
2.92162 0.94085 0
3.08445 0.0363295 0
3.08612 0.107253 0
3.08688 0.175401 0
3.08717 0.241837 0
3.08724 0.307169 0
3.08723 0.371793 0
3.0872 0.435995 0
3.08719 0.5 0
3.0872 0.564005 0
3.08723 0.628207 0
3.08724 0.692831 0
3.08717 0.758163 0
3.08688 0.824599 0
3.08612 0.892747 0
3.08445 0.963671 0
3.25041 0.0341677 0
3.25115 0.102235 0
3.25171 0.169714 0
3.25209 0.236575 0
3.25234 0.302905 0
3.25249 0.368829 0
3.25256 0.434482 0
3.25259 0.5 0
3.25256 0.565518 0
3.25249 0.631171 0
3.25234 0.697095 0
3.25209 0.763425 0
3.25171 0.830286 0
3.25115 0.897765 0
3.25041 0.965832 0
3.41687 0.0336075 0
3.41725 0.10076 0
3.41758 0.167751 0
3.41785 0.234537 0
3.41805 0.301115 0
3.41819 0.367517 0
3.41827 0.433791 0
3.41829 0.5 0
3.41827 0.566209 0
3.41819 0.632483 0
3.41805 0.698885 0
3.41785 0.765463 0
3.41758 0.832249 0
3.41725 0.89924 0
3.41687 0.966392 0
3.58344 0.0334298 0
3.58366 0.10027 0
3.58385 0.16706 0
3.58402 0.233778 0
3.58415 0.300419 0
3.58425 0.36699 0
3.58431 0.433509 0
3.58433 0.5 0
3.58431 0.566491 0
3.58425 0.63301 0
3.58415 0.699581 0
3.58402 0.766222 0
3.58385 0.83294 0
3.58366 0.89973 0
3.58344 0.96657 0
3.75006 0.0333682 0
3.75019 0.100098 0
3.7503 0.16681 0
3.75041 0.233497 0
3.75049 0.300156 0
3.75055 0.366788 0
3.75058 0.433399 0
3.7506 0.5 0
3.75058 0.566601 0
3.75055 0.633212 0
3.75049 0.699844 0
3.75041 0.766503 0
3.7503 0.83319 0
3.75019 0.899902 0
3.75006 0.966632 0
3.9167 0.0333461 0
3.91678 0.100036 0
3.91685 0.166719 0
3.91691 0.233394 0
3.91696 0.300058 0
3.91699 0.366712 0
3.91702 0.433358 0
3.91702 0.5 0
3.91702 0.566642 0
3.91699 0.633288 0
3.91696 0.699942 0
3.91691 0.766606 0
3.91685 0.833281 0
3.91678 0.899964 0
3.9167 0.966654 0
4.08336 0.033338 0
4.0834 0.100013 0
4.08344 0.166686 0
4.08348 0.233356 0
4.08351 0.300021 0
4.08353 0.366683 0
4.08354 0.433342 0
4.08355 0.5 0
4.08354 0.566658 0
4.08353 0.633317 0
4.08351 0.699979 0
4.08348 0.766644 0
4.08344 0.833314 0
4.0834 0.899987 0
4.08336 0.966662 0
4.25001 0.0333351 0
4.25004 0.100005 0
4.25006 0.166674 0
4.25008 0.233342 0
4.2501 0.300008 0
4.25012 0.366673 0
4.25012 0.433337 0
4.25013 0.5 0
4.25012 0.566663 0
4.25012 0.633327 0
4.2501 0.699992 0
4.25008 0.766658 0
4.25006 0.833326 0
4.25004 0.899995 0
4.25001 0.966665 0
4.41667 0.033334 0
4.41669 0.100002 0
4.4167 0.166669 0
4.41672 0.233336 0
4.41673 0.300003 0
4.41673 0.366669 0
4.41674 0.433335 0
4.41674 0.5 0
4.41674 0.566665 0
4.41673 0.633331 0
4.41673 0.699997 0
4.41672 0.766664 0
4.4167 0.833331 0
4.41669 0.899998 0
4.41667 0.966666 0
4.58334 0.0333336 0
4.58335 0.100001 0
4.58335 0.166668 0
4.58336 0.233334 0
4.58337 0.300001 0
4.58337 0.366667 0
4.58337 0.433334 0
4.58338 0.5 0
4.58337 0.566666 0
4.58337 0.633333 0
4.58337 0.699999 0
4.58336 0.766666 0
4.58335 0.833332 0
4.58335 0.899999 0
4.58334 0.966666 0
4.75 0.0333334 0
4.75001 0.1 0
4.75001 0.166667 0
4.75001 0.233334 0
4.75002 0.3 0
4.75002 0.366667 0
4.75002 0.433333 0
4.75002 0.5 0
4.75002 0.566667 0
4.75002 0.633333 0
4.75002 0.7 0
4.75001 0.766666 0
4.75001 0.833333 0
4.75001 0.9 0
4.75 0.966667 0
4.91667 0.0333334 0
4.91667 0.1 0
4.91667 0.166667 0
4.91667 0.233333 0
4.91667 0.3 0
4.91667 0.366667 0
4.91667 0.433333 0
4.91667 0.5 0
4.91667 0.566667 0
4.91667 0.633333 0
4.91667 0.7 0
4.91667 0.766667 0
4.91667 0.833333 0
4.91667 0.9 0
4.91667 0.966667 0
POINT_DATA 450
SCALARS pressure float 1
LOOKUP_TABLE default
94473
94473
94472.9
94472.9
94472.8
94472.7
94472.6
94472.6
94472.6
94472.7
94472.7
94472.8
94472.9
94473
94473
94206.6
94206.5
94206.4
94206.2
94206.1
94205.8
94205.9
94205.7
94205.8
94205.8
94206
94206.1
94206.3
94206.4
94206.5
94535.1
94535.1
94535.1
94535.1
94535
94535
94535
94535
94535
94535
94535
94535
94535
94535.1
94535.1
94136.7
94136.6
94136.8
94136.3
94136.7
94136.1
94136.7
94136
94136.6
94136
94136.6
94136.1
94136.5
94136.3
94136.5
94612.6
94612.6
94612.8
94612.7
94612.9
94612.8
94613
94612.8
94612.9
94612.7
94612.8
94612.6
94612.6
94612.5
94612.5
94049.9
94048.8
94049.4
94047.1
94048.2
94045.5
94047.3
94044.8
94047.2
94045.2
94047.8
94046.5
94048.8
94048.1
94049.2
94716.9
94715.9
94715.6
94713.6
94713.3
94711.2
94711.7
94710.2
94711.6
94711
94713.1
94713.2
94715.3
94715.5
94716.5
93948.9
93941.3
93941.6
93927.7
93929.4
93915.7
93920.8
93910.8
93920.4
93915
93928.3
93926.3
93939.9
93939.5
93947
94879.3
94867.8
94863
94845.7
94841
94826.1
94826.6
94818.3
94826.4
94825.5
94840.4
94844.6
94862.1
94866.5
94878.2
93906.4
93840.5
93834.9
93754.8
93750.7
93689.9
93700.1
93665.9
93699
93688
93747.6
93751.1
93830.2
93835.4
93901
95281.3
95139.8
95101.5
94990.7
94958.4
94887.6
94883.1
94851.2
94882.7
94885.5
94957.2
94986.8
95099.7
95134.8
95278.6
94573.7
93812.9
93770.7
93352.7
93301.6
93102.6
93095.6
93023.9
93093.2
93099.1
93294.3
93344.7
93757.9
93798.6
94555.1
96101.9
95460.3
95051
94756
94613.9
94480.2
94442.4
94402.4
94441.8
94474.5
94612.7
94742.8
95050.7
95435.5
96102.7
89135.2
90212.8
89828.2
90519
90314.5
90746.6
90553.7
90827.5
90553.4
90751.4
90313.7
90531.2
89827.2
90239.5
89127.1
90210
91519.5
91410.1
92232.1
92070.5
92592
92363.2
92702.1
92359.8
92595.1
92059.8
92239.3
91391
91533
90174.2
87372.1
88849.6
88627.9
89612.5
89372.4
90029.5
89716.7
90160.9
89709.8
90026
89350.6
89602.5
88587.6
88824.6
87297.7
91766.8
92527
92295.5
92847.9
92625.6
93036.2
92779.9
93097.9
92774.3
93039.4
92607.1
92853.5
92259.2
92530.4
91703.3
93242.1
92724.1
92592.8
92411.5
92287.5
92288.6
92169.9
92260.5
92167.1
92305.4
92278.8
92449.5
92575.1
92796.2
93236.9
96862.4
95831
95650
95164.1
95022.9
94822
94754.9
94720.3
94761.5
94834.8
95044.9
95189.9
95693.6
95869.3
96962.2
93013.6
93088
93062.7
93091.9
93061.1
93083.2
93050.6
93079.1
93049.5
93084.7
93057.8
93093.1
93056.4
93085.5
93004.9
95122.3
95040.5
95000.3
94906.8
94870.4
94810.4
94797.3
94777.9
94799.7
94814.9
94877.3
94914.7
95010.8
95050.5
95135.3
93518.4
93522.1
93520.4
93523.6
93520.1
93523.7
93519
93523.6
93518.8
93523.8
93519.6
93523.5
93519.7
93521.9
93518.1
94619.9
94612.9
94606.2
94592.6
94586
94574.7
94572.8
94568.2
94573.3
94575.8
94587.5
94594.4
94608.2
94614.8
94621.8
93781.5
93781.8
93782.1
93782.4
93782.5
93782.9
93782.8
93783.2
93782.8
93783.1
93782.7
93782.8
93782.4
93782.3
93782.1
94407.3
94406.6
94405.6
94403.8
94403
94401.3
94401.3
94400.4
94401.4
94401.5
94403.2
94404
94405.8
94406.6
94407.4
93923
93923.2
93923.6
93923.9
93924.3
93924.5
93924.8
93924.8
93924.9
93924.7
93924.5
93924.2
93924
93923.7
93923.5
94303.7
94303.5
94303.4
94303.2
94303.2
94303
94303.1
94302.9
94303.1
94303
94303.2
94303.1
94303.3
94303.3
94303.4
93994.8
93994.9
93995.2
93995.4
93995.6
93995.7
93995.9
93995.9
93996
93995.9
93995.8
93995.6
93995.5
93995.4
93995.3
94255.8
94255.8
94255.8
94255.7
94255.7
94255.6
94255.6
94255.5
94255.6
94255.5
94255.6
94255.6
94255.7
94255.7
94255.7
94024.8
94025
94025.3
94025.5
94025.6
94025.7
94025.8
94025.9
94025.9
94025.9
94025.9
94025.8
94025.7
94025.6
94025.5
SCALARS density float 1
LOOKUP_TABLE default
1.21459
1.21459
1.21459
1.21459
1.21459
1.21459
1.21459
1.21459
1.21459
1.21459
1.21459
1.21459
1.21459
1.21459
1.21459
1.21213
1.21213
1.21213
1.21213
1.21213
1.21212
1.21212
1.21212
1.21212
1.21212
1.21213
1.21213
1.21213
1.21213
1.21213
1.21514
1.21514
1.21514
1.21515
1.21515
1.21515
1.21515
1.21515
1.21515
1.21515
1.21515
1.21515
1.21515
1.21515
1.21514
1.21149
1.21149
1.21149
1.21149
1.21149
1.21149
1.21149
1.21149
1.21149
1.21149
1.21149
1.21149
1.21149
1.21149
1.21149
1.21586
1.21586
1.21586
1.21586
1.21586
1.21586
1.21586
1.21586
1.21586
1.21586
1.21586
1.21586
1.21586
1.21586
1.21586
1.2107
1.21069
1.2107
1.21068
1.21069
1.21067
1.21069
1.21067
1.21069
1.21067
1.21069
1.21068
1.2107
1.21069
1.2107
1.2168
1.21679
1.21679
1.21677
1.21677
1.21675
1.21675
1.21674
1.21675
1.21675
1.21677
1.21677
1.21679
1.21679
1.2168
1.20983
1.20976
1.20977
1.20964
1.20966
1.20954
1.20959
1.2095
1.20958
1.20953
1.20965
1.20963
1.20976
1.20975
1.20981
1.21816
1.21806
1.21803
1.21789
1.21785
1.21772
1.21773
1.21765
1.21772
1.21772
1.21785
1.21788
1.21803
1.21805
1.21815
1.2098
1.20919
1.20909
1.20832
1.20826
1.20769
1.20778
1.20747
1.20777
1.20768
1.20823
1.20829
1.20905
1.20915
1.20975
1.22087
1.21979
1.21963
1.21877
1.21856
1.21796
1.21794
1.21766
1.21794
1.21794
1.21855
1.21874
1.21962
1.21975
1.22086
1.2187
1.21073
1.20983
1.20555
1.20487
1.20284
1.20272
1.20201
1.2027
1.20281
1.20479
1.20546
1.2097
1.2106
1.21852
1.22569
1.22089
1.21786
1.21579
1.21475
1.21373
1.21346
1.21314
1.21345
1.21368
1.21475
1.21569
1.21788
1.22063
1.22568
1.16443
1.17507
1.17118
1.17779
1.17588
1.18
1.17819
1.18078
1.17819
1.18005
1.17588
1.1779
1.17116
1.17545
1.165
1.17547
1.18818
1.18667
1.19424
1.19259
1.19743
1.19524
1.1984
1.19521
1.19746
1.19249
1.1943
1.1865
1.18853
1.17568
1.14719
1.16161
1.1595
1.16875
1.16651
1.17271
1.16983
1.17398
1.16977
1.17268
1.1663
1.16864
1.15914
1.16162
1.14701
1.18884
1.19645
1.19459
1.19968
1.19773
1.20148
1.19919
1.20207
1.19914
1.20151
1.19755
1.19971
1.19428
1.19674
1.18919
1.20182
1.19785
1.19694
1.19507
1.19393
1.19387
1.19285
1.19363
1.19283
1.19403
1.19385
1.19538
1.1968
1.19895
1.2031
1.23291
1.22537
1.22462
1.22043
1.21921
1.21744
1.2169
1.21658
1.21696
1.21755
1.21938
1.22059
1.22504
1.22622
1.23506
1.19884
1.20036
1.20087
1.20136
1.2011
1.20133
1.20107
1.20134
1.20107
1.20133
1.20104
1.2013
1.20089
1.20087
1.19985
1.2183
1.21826
1.21863
1.21807
1.21778
1.21725
1.21717
1.21701
1.2172
1.21728
1.21779
1.21807
1.21883
1.21892
1.21948
1.20373
1.20436
1.20502
1.20537
1.20539
1.20543
1.20542
1.20548
1.20542
1.20542
1.20533
1.20531
1.20515
1.20494
1.20473
1.21388
1.21437
1.21496
1.21519
1.21521
1.21511
1.21511
1.21508
1.21512
1.2151
1.21515
1.21515
1.21514
1.21498
1.21488
1.20625
1.20675
1.20737
1.20775
1.20785
1.20786
1.20787
1.20788
1.20787
1.20783
1.20778
1.20771
1.20756
1.20736
1.2072
1.21201
1.21247
1.21306
1.21342
1.21353
1.21353
1.21353
1.21353
1.21353
1.2135
1.21346
1.21339
1.21326
1.21307
1.21293
1.20764
1.20808
1.20866
1.20905
1.2092
1.20921
1.20922
1.20922
1.20921
1.20917
1.20912
1.20903
1.20888
1.20869
1.20855
1.21105
1.21146
1.21201
1.2124
1.21255
1.21257
1.21256
1.21256
1.21255
1.21252
1.21247
1.21239
1.21224
1.21206
1.21193
1.20852
1.20891
1.20945
1.20985
1.21003
1.21006
1.21005
1.21005
1.21003
1.21001
1.20995
1.20986
1.2097
1.20952
1.20939
1.21027
1.21064
1.21115
1.21154
1.21172
1.21175
1.21175
1.21174
1.21173
1.2117
1.21165
1.21156
1.21141
1.21124
1.21112
1.20965
1.21
1.21051
1.21091
1.2111
1.21114
1.21113
1.21112
1.21111
1.21108
1.21103
1.21093
1.21078
1.21061
1.21049
SCALARS u-velocity float 1
LOOKUP_TABLE default
99.5963
99.5971
99.5981
99.5997
99.6007
99.6021
99.6024
99.6032
99.6027
99.6026
99.6015
99.6008
99.5994
99.5985
99.5978
98.7374
98.7373
98.7372
98.7373
98.7374
98.7376
98.7378
98.7379
98.738
98.7379
98.7378
98.7378
98.7378
98.738
98.7381
99.6989
99.7009
99.7033
99.7071
99.7091
99.7123
99.7127
99.7145
99.7132
99.7132
99.7104
99.7088
99.7053
99.7032
99.7013
98.6091
98.6068
98.6039
98.6011
98.5992
98.5981
98.5975
98.5974
98.5976
98.5983
98.5995
98.6015
98.6043
98.6072
98.6094
99.8413
99.85
99.8591
99.8734
99.8797
99.8907
99.8915
99.8975
99.8925
99.8927
99.8826
99.8771
99.8636
99.8551
99.8467
98.4291
98.4184
98.4049
98.3953
98.3896
98.3882
98.3866
98.3878
98.3869
98.3888
98.3903
98.3962
98.4054
98.4185
98.4288
99.9698
100.016
100.057
100.118
100.143
100.187
100.191
100.212
100.193
100.191
100.15
100.126
100.068
100.029
99.9843
98.1797
98.1318
98.0937
98.0887
98.0916
98.1132
98.1187
98.1336
98.1199
98.1161
98.0948
98.0935
98.0966
98.1326
98.1772
99.7861
100.076
100.231
100.494
100.601
100.771
100.797
100.863
100.802
100.78
100.616
100.511
100.255
100.108
99.8289
97.4464
97.3373
97.4532
97.6626
97.8101
98.0317
98.1161
98.2089
98.1216
98.0446
97.8235
97.6859
97.4722
97.351
97.4299
97.81
99.6651
100.014
101.225
101.723
102.273
102.458
102.593
102.467
102.288
101.754
101.259
100.059
99.7249
97.9497
89.6063
94.6045
96.4236
98.2279
99.2469
100.395
100.811
101.123
100.826
100.433
99.288
98.3003
96.501
94.7578
89.5276
90.002
94.2062
101.737
104.029
106.533
106.987
108.03
107.779
108.047
107.018
106.589
104.122
101.866
94.2753
90.2827
123.812
120.3
120.883
119.447
119.759
118.284
118.685
117.821
118.685
118.259
119.766
119.375
120.831
120.353
124.985
134.83
130.577
127.565
124.975
123.931
122.167
121.982
121.206
121.998
122.186
123.978
124.975
127.636
131.038
136
137
133.26
130.023
127.581
126.38
124.925
124.551
123.997
124.582
124.978
126.468
127.674
130.263
133.893
138.146
117.888
120.316
118.2
118.468
117.438
117.546
116.818
117.061
116.839
117.547
117.483
118.419
118.336
120.852
120.137
89.33
101.722
102.68
106.318
106.581
108.686
108.301
109.249
108.267
108.616
106.435
106.029
102.394
102.32
92.1826
79.2916
90.7295
95.7013
99.1548
100.366
102.138
102.298
102.956
102.256
102.081
100.147
98.8838
95.4807
91.7893
81.7108
96.1393
98.7943
102.031
103.027
103.461
103.956
104.031
104.265
104.028
103.94
103.345
102.862
102.168
100.07
98.6662
91.1807
93.915
97.0399
98.5968
99.158
99.6883
99.8439
100.059
99.8354
99.6479
98.9965
98.4067
97.2282
95.2214
93.5914
95.9992
98.0355
100.585
101.807
102.191
102.346
102.44
102.512
102.445
102.313
102.055
101.675
100.9
99.388
98.3215
93.5192
95.4686
97.8925
99.2755
99.7341
99.895
99.9799
100.047
99.9792
99.8431
99.5778
99.1543
98.2624
96.8451
95.7886
95.6719
97.441
99.6747
101.046
101.523
101.625
101.677
101.71
101.675
101.564
101.368
100.959
100.103
98.8215
97.8617
94.4247
96.0997
98.254
99.6804
100.222
100.338
100.374
100.397
100.364
100.262
100.06
99.6174
98.7279
97.4942
96.5748
95.4958
97.0608
99.1155
100.551
101.139
101.262
101.282
101.292
101.265
101.174
100.977
100.515
99.6256
98.4498
97.5852
94.9404
96.4269
98.4182
99.8754
100.515
100.66
100.67
100.67
100.644
100.56
100.352
99.8646
98.9631
97.8208
96.9943
95.4292
96.8366
98.7572
100.217
100.897
101.064
101.068
101.058
101.033
100.953
100.738
100.231
99.3287
98.2238
97.4371
95.2892
96.6325
98.4969
99.9621
100.682
100.872
100.873
100.854
100.829
100.751
100.525
99.9985
99.094
98.0177
97.2634
95.4189
96.7028
98.5115
99.9732
100.725
100.94
100.942
100.916
100.889
100.81
100.573
100.032
99.1294
98.0818
97.3575
SCALARS v-velocity float 1
LOOKUP_TABLE default
-0.000386417
-0.000766307
-0.00125721
-0.00125527
-0.00127435
-0.000954504
-0.000646065
-0.000218016
0.000220111
0.000553278
0.000915992
0.000954585
0.00102846
0.000623831
0.000336869
0.000885654
0.00179902
0.00294402
0.00303596
0.00306805
0.00233632
0.00151457
0.000408928
-0.000715641
-0.00158497
-0.00239822
-0.002475
-0.00251833
-0.00153381
-0.000793863
-0.000478306
-0.00099998
-0.00138568
-0.00119283
-0.0010136
-0.000638221
-0.000390267
-0.00011924
0.000161228
0.000410289
0.000801203
0.000999143
0.00122276
0.00089435
0.000435955
0.00361948
0.00694595
0.0113924
0.0112843
0.0113482
0.00839356
0.00537157
0.0012793
-0.00287709
-0.0060344
-0.00923581
-0.00949621
-0.0100139
-0.00607968
-0.003312
-0.0022071
-0.00521931
-0.0062984
-0.00563866
-0.00419822
-0.00274063
-0.00124802
1.32609e-07
0.00128048
0.00269261
0.00411072
0.00546681
0.00605851
0.00503754
0.00210006
0.0149769
0.0274982
0.043258
0.0417353
0.0407551
0.0296881
0.0181352
0.00337146
-0.0115954
-0.0234208
-0.0351077
-0.0368485
-0.0393482
-0.0249754
-0.0140247
-0.00595668
-0.01081
-0.00620099
-0.00163945
0.00422025
0.00471725
0.00442855
0.000759717
-0.00271601
-0.00355262
-0.00331533
0.00190116
0.00575362
0.0102668
0.00542887
0.0732381
0.11892
0.174534
0.170948
0.158228
0.116739
0.065932
0.00825414
-0.0501438
-0.10115
-0.144131
-0.158328
-0.163738
-0.111341
-0.0698665
0.0148011
0.0937186
0.165611
0.181576
0.187778
0.1437
0.0854542
0.0047928
-0.0745667
-0.135764
-0.180555
-0.177531
-0.165214
-0.0957852
-0.018834
0.376557
0.508028
0.691879
0.730753
0.601503
0.46746
0.238274
0.0182813
-0.204678
-0.432228
-0.570102
-0.701216
-0.666014
-0.485603
-0.360279
1.11395
1.71886
2.01896
1.91198
1.67408
1.19868
0.643693
0.0212072
-0.593461
-1.16039
-1.63304
-1.8851
-1.99555
-1.71582
-1.14487
-0.314935
3.35681
2.50545
3.06728
2.02243
1.69474
0.764179
0.0354012
-0.704511
-1.62695
-1.96944
-3.00944
-2.47647
-3.33577
0.352729
23.101
19.9508
15.9926
12.9204
9.06084
6.13584
2.9559
0.0665607
-2.79517
-5.99983
-8.87931
-12.7834
-15.7675
-19.7779
-22.8722
25.127
16.0646
13.1672
8.69074
6.6242
3.84333
2.04746
0.0752474
-1.90638
-3.6898
-6.48354
-8.52122
-12.9997
-15.8662
-25.2964
11.4078
7.10005
6.75456
4.15942
3.72774
2.0032
1.21551
0.0685535
-1.13119
-1.87195
-3.67101
-4.03971
-6.75288
-7.06385
-11.6396
-8.23288
-8.56834
-4.69701
-4.81262
-2.39007
-2.10682
-0.685474
0.126033
0.864622
2.36092
2.57357
5.07824
4.89961
8.85665
8.46355
-20.86
-18.1311
-12.1371
-10.084
-6.22903
-4.40824
-1.84621
0.155808
2.06908
4.74317
6.48505
10.4987
12.512
18.7965
21.5354
-23.3206
-18.4079
-14.4345
-10.8751
-7.8477
-4.97662
-2.41897
0.188201
2.61548
5.37639
8.047
11.3626
14.6744
19.1742
23.9033
-2.46988
-0.486027
-2.21364
-1.30723
-1.73266
-0.898702
-0.612845
0.0442159
0.63651
0.972905
1.73562
1.35564
2.18432
0.420591
2.33076
-1.91037
-2.21676
-2.69651
-2.20329
-2.0367
-1.28467
-0.705603
0.0564722
0.771816
1.3868
2.09694
2.28971
2.73334
2.17543
1.88777
-0.198418
-0.270635
-0.370403
-0.204188
-0.33452
-0.166744
-0.129755
0.010571
0.134919
0.183843
0.345571
0.225862
0.370635
0.224926
0.172545
-0.176819
-0.365106
-0.431752
-0.341467
-0.368367
-0.241854
-0.143718
0.0118346
0.158363
0.263258
0.388698
0.363096
0.42755
0.320622
0.152933
-0.0390382
-0.105336
-0.0759967
-0.0214559
-0.0448127
-0.0295009
-0.025263
0.00218354
0.0270178
0.0364645
0.0573314
0.0353591
0.0705208
0.0740164
0.0210034
-0.0450239
-0.109171
-0.0898387
-0.0460271
-0.0480638
-0.0393171
-0.0275138
0.000322557
0.0274309
0.0439022
0.0578175
0.0533393
0.076907
0.0760918
0.0270068
-0.02616
-0.0594813
-0.0311502
0.00527083
0.00784967
-6.59242e-05
-0.00489867
-0.000402845
0.00482395
0.00502009
0.00275118
0.0025786
0.0216253
0.0345006
0.0123955
-0.0278459
-0.0606121
-0.039775
-0.00641722
0.00228278
-0.0035255
-0.00695059
-0.00231422
0.00369063
0.00536634
0.00420172
0.0084453
0.0253452
0.0344052
0.0143054
-0.0216945
-0.0450979
-0.0257368
0.00386293
0.013506
0.00630301
-0.000677923
-0.0013318
-0.000190436
-0.00197483
-0.00510209
-0.000269488
0.0145907
0.0240665
0.0108189
-0.0218154
-0.0460395
-0.0314832
-0.00416071
0.00777463
0.00338362
-0.00243087
-0.00281977
-0.00119587
-0.001915
-0.00309283
0.00335066
0.0171921
0.0242976
0.0111257
-0.018268
-0.0381111
-0.0253589
-0.000703038
0.0112861
0.00756955
0.000735982
-0.00193245
-0.00244733
-0.00430223
-0.00541385
0.000937166
0.0133848
0.0197508
0.00927884
-0.0187357
-0.0399394
-0.02951
-0.00563306
0.00773291
0.00594609
-8.22256e-05
-0.00274308
-0.00318902
-0.00438727
-0.00416207
0.00310904
0.0153116
0.0205594
0.00954003
SCALARS Mach float 1
LOOKUP_TABLE default
30.0596
30.0601
30.0607
30.0617
30.0623
30.0631
30.0634
30.0638
30.0635
30.0635
30.0628
30.0623
30.0615
30.061
30.0605
29.5551
29.5551
29.555
29.5551
29.5552
29.5553
29.5555
29.5555
29.5555
29.5555
29.5554
29.5554
29.5554
29.5555
29.5556
30.1185
30.1198
30.1212
30.1235
30.1247
30.1267
30.127
30.128
30.1272
30.1273
30.1256
30.1246
30.1225
30.1212
30.12
29.4815
29.4802
29.4784
29.4768
29.4757
29.475
29.4747
29.4746
29.4747
29.4752
29.4759
29.477
29.4787
29.4804
29.4817
30.2011
30.2064
30.2119
30.2206
30.2244
30.2311
30.2315
30.2351
30.2322
30.2322
30.2261
30.2228
30.2146
30.2095
30.2044
29.378
29.3717
29.3636
29.3581
29.3546
29.3539
29.3529
29.3537
29.353
29.3543
29.3551
29.3586
29.364
29.3718
29.3779
30.274
30.3022
30.327
30.3641
30.3794
30.4059
30.4084
30.4211
30.4098
30.4086
30.3834
30.3691
30.3336
30.31
30.2828
29.2345
29.2064
29.1838
29.1815
29.1831
29.1966
29.1996
29.2089
29.2004
29.1983
29.1851
29.1844
29.1856
29.207
29.2331
30.1539
30.33
30.4246
30.5852
30.6508
30.7553
30.7712
30.8117
30.7741
30.7609
30.6597
30.5958
30.4394
30.3497
30.1798
28.806
28.7447
28.8135
28.9408
29.0277
29.1616
29.2108
29.2674
29.2141
29.1692
29.0357
28.9547
28.8249
28.7531
28.7965
28.9461
30.0686
30.287
31.0305
31.3366
31.6757
31.7882
31.8725
31.7935
31.6852
31.3551
31.0509
30.3139
30.1049
29.0293
24.3602
27.2082
28.244
29.3331
29.9278
30.6269
30.8738
31.0663
30.8832
30.6498
29.9522
29.3754
28.2893
27.2964
24.3182
26.0599
28.0269
32.0859
33.2672
34.6181
34.7866
35.3819
35.1942
35.3898
34.8025
34.6442
33.3161
32.1438
28.0462
26.1807
48.7554
44.9301
45.1227
43.7261
43.8712
42.685
42.9548
42.3013
42.9533
42.6628
43.8708
43.6643
45.0707
44.9506
49.6869
55.8578
52.0759
49.6919
47.552
46.7597
45.3729
45.2425
44.6419
45.2547
45.3852
46.7946
47.5485
49.748
52.4456
56.8572
57.6861
54.4914
51.7478
49.7507
48.7853
47.617
47.3443
46.8897
47.3694
47.6615
48.8577
49.8317
51.949
55.0316
58.6842
43.5996
44.9937
42.9284
42.9457
42.0324
42.0235
41.4742
41.6154
41.4926
42.0333
42.076
42.9353
43.0572
45.4652
45.3373
25.863
32.4611
32.6706
34.7142
34.7183
35.9832
35.679
36.2824
35.6601
35.9487
34.6342
34.5578
32.5144
32.9217
27.5329
18.9758
24.8787
27.7116
29.7618
30.5043
31.5947
31.6968
32.1062
31.67
31.559
30.3703
29.5976
27.5822
25.4667
20.1553
28.0554
29.6365
31.6272
32.2419
32.5136
32.8168
32.8629
33.0082
32.8613
32.8076
32.4413
32.1388
31.7141
30.413
29.5625
25.1466
26.6885
28.5047
29.4341
29.7725
30.0945
30.1897
30.321
30.1845
30.0698
29.6747
29.3195
28.6162
27.4422
26.5049
27.944
29.1494
30.6942
31.4485
31.687
31.783
31.8419
31.8862
31.8447
31.7623
31.6019
31.3658
30.8886
29.9664
29.3245
26.4749
27.5968
29.024
29.8548
30.1325
30.2303
30.2821
30.3229
30.2817
30.1986
30.0373
29.7812
29.2456
28.4052
27.7866
27.7437
28.7852
30.1278
30.9669
31.2613
31.3242
31.3569
31.3771
31.3552
31.2864
31.1651
30.9132
30.3895
29.6139
29.0396
26.9996
27.9715
29.2468
30.107
30.4365
30.507
30.5292
30.5436
30.5231
30.4605
30.3374
30.0685
29.5321
28.7962
28.254
27.6368
28.5553
29.784
30.658
31.0191
31.095
31.1074
31.1132
31.0966
31.0407
30.9189
30.6359
30.0941
29.3857
28.8701
27.2995
28.1659
29.3478
30.2282
30.6183
30.707
30.7133
30.713
30.6973
30.6455
30.5186
30.2215
29.6765
28.9932
28.5038
27.5977
28.4223
29.5675
30.4531
30.8701
30.9724
30.975
30.9685
30.9534
30.9041
30.7715
30.4614
29.9138
29.2497
28.7816
27.4987
28.2837
29.3918
30.2777
30.7175
30.834
30.8345
30.8228
30.8076
30.7595
30.6209
30.2999
29.7524
29.1076
28.6599
27.6003
28.3522
29.4287
30.3135
30.7736
30.9053
30.9065
30.8905
30.874
30.8253
30.6799
30.3492
29.8023
29.1737
28.7431
