# vtk DataFile Version 3.0
Structured Grid Example
ASCII
DATASET STRUCTURED_GRID
DIMENSIONS 15 30 1
POINTS 450 FLOAT
0.0833327 0.0333334 0
0.0833313 0.1 0
0.0833301 0.166667 0
0.083329 0.233333 0
0.0833281 0.3 0
0.0833274 0.366667 0
0.083327 0.433333 0
0.0833268 0.5 0
0.083327 0.566667 0
0.0833274 0.633333 0
0.0833281 0.7 0
0.083329 0.766667 0
0.0833301 0.833333 0
0.0833313 0.9 0
0.0833327 0.966667 0
0.249998 0.0333334 0
0.249993 0.1 0
0.249989 0.166667 0
0.249986 0.233334 0
0.249983 0.3 0
0.24998 0.366667 0
0.249979 0.433333 0
0.249979 0.5 0
0.249979 0.566667 0
0.24998 0.633333 0
0.249983 0.7 0
0.249986 0.766666 0
0.249989 0.833333 0
0.249993 0.9 0
0.249998 0.966667 0
0.416662 0.0333336 0
0.416654 0.100001 0
0.416646 0.166668 0
0.416639 0.233334 0
0.416633 0.300001 0
0.416628 0.366667 0
0.416626 0.433334 0
0.416625 0.5 0
0.416626 0.566666 0
0.416628 0.633333 0
0.416633 0.699999 0
0.416639 0.766666 0
0.416646 0.833332 0
0.416654 0.899999 0
0.416662 0.966666 0
0.583326 0.033334 0
0.58331 0.100002 0
0.583296 0.166669 0
0.583284 0.233336 0
0.583273 0.300003 0
0.583266 0.366669 0
0.583261 0.433335 0
0.583259 0.5 0
0.583261 0.566665 0
0.583266 0.633331 0
0.583273 0.699997 0
0.583284 0.766664 0
0.583296 0.833331 0
0.58331 0.899998 0
0.583326 0.966666 0
0.749987 0.0333351 0
0.749961 0.100005 0
0.749937 0.166674 0
0.749915 0.233342 0
0.749898 0.300008 0
0.749884 0.366673 0
0.749876 0.433337 0
0.749874 0.5 0
0.749876 0.566663 0
0.749884 0.633327 0
0.749898 0.699992 0
0.749915 0.766658 0
0.749937 0.833326 0
0.749961 0.899995 0
0.749987 0.966665 0
0.916644 0.033338 0
0.916601 0.100013 0
0.91656 0.166686 0
0.916524 0.233356 0
0.916494 0.300021 0
0.916472 0.366683 0
0.916458 0.433342 0
0.916454 0.5 0
0.916458 0.566658 0
0.916472 0.633317 0
0.916494 0.699979 0
0.916524 0.766644 0
0.91656 0.833314 0
0.916601 0.899987 0
0.916644 0.966662 0
1.0833 0.0333461 0
1.08322 0.100036 0
1.08315 0.166719 0
1.08309 0.233394 0
1.08304 0.300058 0
1.08301 0.366712 0
1.08298 0.433358 0
1.08298 0.5 0
1.08298 0.566642 0
1.08301 0.633288 0
1.08304 0.699942 0
1.08309 0.766606 0
1.08315 0.833281 0
1.08322 0.899964 0
1.0833 0.966654 0
1.24994 0.0333682 0
1.24981 0.100098 0
1.2497 0.16681 0
1.24959 0.233497 0
1.24951 0.300156 0
1.24945 0.366788 0
1.24942 0.433399 0
1.2494 0.5 0
1.24942 0.566601 0
1.24945 0.633212 0
1.24951 0.699844 0
1.24959 0.766503 0
1.2497 0.83319 0
1.24981 0.899902 0
1.24994 0.966632 0
1.41656 0.0334298 0
1.41634 0.10027 0
1.41615 0.16706 0
1.41598 0.233778 0
1.41585 0.300419 0
1.41575 0.36699 0
1.41569 0.433509 0
1.41567 0.5 0
1.41569 0.566491 0
1.41575 0.63301 0
1.41585 0.699581 0
1.41598 0.766222 0
1.41615 0.83294 0
1.41634 0.89973 0
1.41656 0.96657 0
1.58313 0.0336075 0
1.58275 0.10076 0
1.58242 0.167751 0
1.58215 0.234537 0
1.58195 0.301115 0
1.58181 0.367517 0
1.58173 0.433791 0
1.58171 0.5 0
1.58173 0.566209 0
1.58181 0.632483 0
1.58195 0.698885 0
1.58215 0.765463 0
1.58242 0.832249 0
1.58275 0.89924 0
1.58313 0.966392 0
1.74959 0.0341677 0
1.74885 0.102235 0
1.74829 0.169714 0
1.74791 0.236575 0
1.74766 0.302905 0
1.74751 0.368829 0
1.74744 0.434482 0
1.74741 0.5 0
1.74744 0.565518 0
1.74751 0.631171 0
1.74766 0.697095 0
1.74791 0.763425 0
1.74829 0.830286 0
1.74885 0.897765 0
1.74959 0.965832 0
1.91555 0.0363295 0
1.91388 0.107253 0
1.91312 0.175401 0
1.91283 0.241837 0
1.91276 0.307169 0
1.91277 0.371793 0
1.9128 0.435995 0
1.91281 0.5 0
1.9128 0.564005 0
1.91277 0.628207 0
1.91276 0.692831 0
1.91283 0.758163 0
1.91312 0.824599 0
1.91388 0.892747 0
1.91555 0.963671 0
2.07838 0.0591504 0
2.07417 0.125973 0
2.07554 0.190391 0
2.07663 0.253364 0
2.07743 0.315525 0
2.07798 0.377223 0
2.07829 0.438667 0
2.0784 0.5 0
2.07829 0.561333 0
2.07798 0.622777 0
2.07743 0.684475 0
2.07663 0.746636 0
2.07554 0.809609 0
2.07417 0.874027 0
2.07838 0.94085 0
2.24384 0.096456 0
2.23911 0.153168 0
2.24152 0.210396 0
2.24318 0.267878 0
2.24431 0.325632 0
2.24503 0.383617 0
2.24544 0.441767 0
2.24557 0.5 0
2.24544 0.558233 0
2.24503 0.616383 0
2.24431 0.674368 0
2.24318 0.732122 0
2.24152 0.789604 0
2.23911 0.846832 0
2.24384 0.903544 0
2.41462 0.118677 0
2.41292 0.170231 0
2.41356 0.223198 0
2.41406 0.277268 0
2.41444 0.332207 0
2.4147 0.387788 0
2.41485 0.44379 0
2.4149 0.5 0
2.41485 0.55621 0
2.4147 0.612212 0
2.41444 0.667793 0
2.41406 0.722732 0
2.41356 0.776802 0
2.41292 0.829769 0
2.41462 0.881323 0
2.58538 0.118677 0
2.58708 0.170231 0
2.58644 0.223198 0
2.58594 0.277268 0
2.58556 0.332207 0
2.5853 0.387788 0
2.58515 0.44379 0
2.5851 0.5 0
2.58515 0.55621 0
2.5853 0.612212 0
2.58556 0.667793 0
2.58594 0.722732 0
2.58644 0.776802 0
2.58708 0.829769 0
2.58538 0.881323 0
2.75616 0.096456 0
2.76089 0.153168 0
2.75848 0.210396 0
2.75682 0.267878 0
2.75569 0.325632 0
2.75497 0.383617 0
2.75456 0.441767 0
2.75443 0.5 0
2.75456 0.558233 0
2.75497 0.616383 0
2.75569 0.674368 0
2.75682 0.732122 0
2.75848 0.789604 0
2.76089 0.846832 0
2.75616 0.903544 0
2.92162 0.0591504 0
2.92583 0.125973 0
2.92446 0.190391 0
2.92337 0.253364 0
2.92257 0.315525 0
2.92202 0.377223 0
2.92171 0.438667 0
2.9216 0.5 0
2.92171 0.561333 0
2.92202 0.622777 0
2.92257 0.684475 0
2.92337 0.746636 0
2.92446 0.809609 0
2.92583 0.874027 0
2.92162 0.94085 0
3.08445 0.0363295 0
3.08612 0.107253 0
3.08688 0.175401 0
3.08717 0.241837 0
3.08724 0.307169 0
3.08723 0.371793 0
3.0872 0.435995 0
3.08719 0.5 0
3.0872 0.564005 0
3.08723 0.628207 0
3.08724 0.692831 0
3.08717 0.758163 0
3.08688 0.824599 0
3.08612 0.892747 0
3.08445 0.963671 0
3.25041 0.0341677 0
3.25115 0.102235 0
3.25171 0.169714 0
3.25209 0.236575 0
3.25234 0.302905 0
3.25249 0.368829 0
3.25256 0.434482 0
3.25259 0.5 0
3.25256 0.565518 0
3.25249 0.631171 0
3.25234 0.697095 0
3.25209 0.763425 0
3.25171 0.830286 0
3.25115 0.897765 0
3.25041 0.965832 0
3.41687 0.0336075 0
3.41725 0.10076 0
3.41758 0.167751 0
3.41785 0.234537 0
3.41805 0.301115 0
3.41819 0.367517 0
3.41827 0.433791 0
3.41829 0.5 0
3.41827 0.566209 0
3.41819 0.632483 0
3.41805 0.698885 0
3.41785 0.765463 0
3.41758 0.832249 0
3.41725 0.89924 0
3.41687 0.966392 0
3.58344 0.0334298 0
3.58366 0.10027 0
3.58385 0.16706 0
3.58402 0.233778 0
3.58415 0.300419 0
3.58425 0.36699 0
3.58431 0.433509 0
3.58433 0.5 0
3.58431 0.566491 0
3.58425 0.63301 0
3.58415 0.699581 0
3.58402 0.766222 0
3.58385 0.83294 0
3.58366 0.89973 0
3.58344 0.96657 0
3.75006 0.0333682 0
3.75019 0.100098 0
3.7503 0.16681 0
3.75041 0.233497 0
3.75049 0.300156 0
3.75055 0.366788 0
3.75058 0.433399 0
3.7506 0.5 0
3.75058 0.566601 0
3.75055 0.633212 0
3.75049 0.699844 0
3.75041 0.766503 0
3.7503 0.83319 0
3.75019 0.899902 0
3.75006 0.966632 0
3.9167 0.0333461 0
3.91678 0.100036 0
3.91685 0.166719 0
3.91691 0.233394 0
3.91696 0.300058 0
3.91699 0.366712 0
3.91702 0.433358 0
3.91702 0.5 0
3.91702 0.566642 0
3.91699 0.633288 0
3.91696 0.699942 0
3.91691 0.766606 0
3.91685 0.833281 0
3.91678 0.899964 0
3.9167 0.966654 0
4.08336 0.033338 0
4.0834 0.100013 0
4.08344 0.166686 0
4.08348 0.233356 0
4.08351 0.300021 0
4.08353 0.366683 0
4.08354 0.433342 0
4.08355 0.5 0
4.08354 0.566658 0
4.08353 0.633317 0
4.08351 0.699979 0
4.08348 0.766644 0
4.08344 0.833314 0
4.0834 0.899987 0
4.08336 0.966662 0
4.25001 0.0333351 0
4.25004 0.100005 0
4.25006 0.166674 0
4.25008 0.233342 0
4.2501 0.300008 0
4.25012 0.366673 0
4.25012 0.433337 0
4.25013 0.5 0
4.25012 0.566663 0
4.25012 0.633327 0
4.2501 0.699992 0
4.25008 0.766658 0
4.25006 0.833326 0
4.25004 0.899995 0
4.25001 0.966665 0
4.41667 0.033334 0
4.41669 0.100002 0
4.4167 0.166669 0
4.41672 0.233336 0
4.41673 0.300003 0
4.41673 0.366669 0
4.41674 0.433335 0
4.41674 0.5 0
4.41674 0.566665 0
4.41673 0.633331 0
4.41673 0.699997 0
4.41672 0.766664 0
4.4167 0.833331 0
4.41669 0.899998 0
4.41667 0.966666 0
4.58334 0.0333336 0
4.58335 0.100001 0
4.58335 0.166668 0
4.58336 0.233334 0
4.58337 0.300001 0
4.58337 0.366667 0
4.58337 0.433334 0
4.58338 0.5 0
4.58337 0.566666 0
4.58337 0.633333 0
4.58337 0.699999 0
4.58336 0.766666 0
4.58335 0.833332 0
4.58335 0.899999 0
4.58334 0.966666 0
4.75 0.0333334 0
4.75001 0.1 0
4.75001 0.166667 0
4.75001 0.233334 0
4.75002 0.3 0
4.75002 0.366667 0
4.75002 0.433333 0
4.75002 0.5 0
4.75002 0.566667 0
4.75002 0.633333 0
4.75002 0.7 0
4.75001 0.766666 0
4.75001 0.833333 0
4.75001 0.9 0
4.75 0.966667 0
4.91667 0.0333334 0
4.91667 0.1 0
4.91667 0.166667 0
4.91667 0.233333 0
4.91667 0.3 0
4.91667 0.366667 0
4.91667 0.433333 0
4.91667 0.5 0
4.91667 0.566667 0
4.91667 0.633333 0
4.91667 0.7 0
4.91667 0.766667 0
4.91667 0.833333 0
4.91667 0.9 0
4.91667 0.966667 0
POINT_DATA 450
SCALARS pressure float 1
LOOKUP_TABLE default
94477.7
94477.4
94475.5
94473.6
94471.5
94469.4
94468.4
94467.6
94468.4
94469.4
94471.5
94473.7
94475.6
94477.5
94477.8
94163.3
94172
94184.1
94201.9
94219.3
94234.6
94245.6
94248.6
94245.6
94234.6
94219.3
94201.9
94184
94172
94163.2
94452.9
94468.1
94492.4
94526.6
94560.1
94590.8
94611
94618.2
94610.9
94590.7
94560.1
94526.6
94492.3
94468
94452.8
94040.2
94056.9
94086.7
94126.7
94166.9
94203.1
94227.1
94235.8
94227.1
94203
94166.6
94126.4
94086.4
94056.5
94039.8
94518.2
94533.5
94563.5
94602.8
94641.9
94678.5
94701
94710.8
94700.9
94678.3
94641.7
94602.5
94563.1
94533
94517.8
93982.6
93990.8
94014.4
94040.2
94069.5
94093.9
94110.9
94116.7
94110.6
94093.5
94068.8
94039.3
94013.4
93989.7
93981.5
94698.5
94697.4
94706.1
94711.8
94720
94727.2
94730.4
94733.4
94730.2
94726.7
94719.4
94711.1
94705.2
94696.4
94697.5
93980.8
93963.6
93957.6
93930.2
93919.4
93895.9
93891.2
93881.1
93890.6
93894.8
93917.8
93928.3
93955.3
93961.1
93978.1
94960.4
94931
94904.8
94853.7
94816.7
94773.8
94753.2
94740.1
94752.8
94772.8
94815.7
94852
94903.2
94928.9
94958.5
94016
93927.8
93891.1
93765
93716.8
93616.6
93599.3
93556.9
93598.1
93614.4
93713.2
93760.8
93885.6
93921.9
94009.8
95393.9
95229.9
95157.3
94998.3
94919.6
94807.2
94774.9
94733.7
94774.3
94804.8
94918
94993.9
95154.9
95224.3
95390.6
94671.1
93890.8
93816.8
93357.7
93267.3
93033.3
93003.8
92923.8
93001.3
93029.5
93259.5
93349.2
93803.4
93875.8
94651.8
96167.9
95510
95078.6
94757.7
94591.2
94436.8
94385.3
94340.8
94384.6
94430.8
94589.6
94743.9
95077.7
95484.5
96168
89155.5
90229.3
89835.4
90518.5
90305.7
90730.9
90534.1
90805.6
90533.7
90735.4
90304.8
90530.4
89834.1
90255.5
89147
90217.7
91526.4
91413.1
92231.9
92066.3
92584.2
92353.5
92691.1
92350.1
92587.2
92055.5
92239
91394
91539.9
90181.8
87384.3
88860.3
88634.8
89615.3
89370.9
90023.7
89708.9
90151.5
89702.1
90020.2
89349.1
89605.3
88594.5
88835.3
87309.8
91784.9
92542.4
92305.2
92851.4
92622.6
93027.3
92767.6
93083.8
92762
93030.5
92604.1
92857
92268.9
92545.8
91721.3
93261
92742.2
92605.1
92416.4
92285.5
92278.7
92156.7
92244.2
92153.9
92295.6
92276.8
92454.5
92587.3
92814.3
93255.7
96863.4
95835.1
95653.9
95168.8
95028.1
94826
94760
94723.7
94766.6
94838.7
95050
95194.5
95697.5
95873.5
96963.3
92975.4
93059.3
93045
93090.5
93075.2
93109.7
93086.9
93117
93085.9
93111.3
93072
93091.9
93038.9
93057
92966.9
95044.8
94978
94958.8
94896.2
94889.7
94856.1
94861.7
94847.5
94864.2
94860.7
94897
94904.5
94969.7
94988.5
95058.2
93410.6
93433.9
93461.7
93507.6
93545.8
93587.1
93608
93621
93608
93587.5
93545.7
93508.2
93461.6
93434.2
93410.8
94498.4
94513
94541.1
94576.9
94618.6
94651.9
94679.2
94685.2
94679.9
94653.3
94620.7
94579.4
94543.8
94515.5
94500.9
93669.4
93689.2
93723.7
93771.2
93817.7
93861.3
93888.8
93900.1
93889
93861.9
93818.5
93772.2
93724.8
93690.5
93670.6
94319.9
94334.1
94362.1
94398.7
94436.1
94470.2
94492.3
94501.1
94492.6
94470.8
94436.9
94399.6
94363
94335
94320.6
93869.5
93878
93897.9
93922.5
93947.5
93971
93984.9
93991.9
93985.2
93971.5
93948.2
93923.5
93899
93879.2
93870.7
94281.8
94283.6
94292.7
94302.1
94312.1
94322
94326.9
94330.5
94327
94322.2
94312.4
94302.4
94293.1
94284.1
94282.2
93999.3
93996.5
93996.7
93994.2
93992.2
93991.1
93988.9
93989.8
93989
93991.3
93992.6
93994.7
93997.3
93997.3
94000.2
94270.3
94265.5
94260.6
94252.2
94244
94237.1
94231.5
94230.6
94231.5
94237.1
94243.9
94252.1
94260.6
94265.6
94270.4
94035.7
94032.4
94027.6
94020.2
94012.7
94006.2
94001.5
94000.3
94001.6
94006.4
94013
94020.5
94028
94033.1
94036.6
SCALARS density float 1
LOOKUP_TABLE default
1.21462
1.21462
1.21461
1.21459
1.21458
1.21457
1.21456
1.21455
1.21456
1.21457
1.21458
1.2146
1.21461
1.21462
1.21462
1.21173
1.21181
1.21192
1.21209
1.21225
1.21239
1.21249
1.21252
1.21249
1.21239
1.21225
1.21209
1.21192
1.21181
1.21173
1.21439
1.21453
1.21475
1.21507
1.21538
1.21566
1.21584
1.21591
1.21584
1.21566
1.21538
1.21507
1.21475
1.21453
1.21439
1.2106
1.21075
1.21103
1.2114
1.21177
1.2121
1.21232
1.21241
1.21232
1.2121
1.21177
1.2114
1.21103
1.21075
1.2106
1.21499
1.21513
1.21541
1.21577
1.21613
1.21646
1.21667
1.21676
1.21667
1.21646
1.21613
1.21577
1.2154
1.21513
1.21499
1.21008
1.21016
1.21038
1.21062
1.21089
1.21112
1.21127
1.21133
1.21127
1.21111
1.21088
1.21061
1.21037
1.21015
1.21007
1.21663
1.21662
1.2167
1.21676
1.21683
1.2169
1.21693
1.21695
1.21692
1.21689
1.21683
1.21675
1.21669
1.21661
1.21662
1.21012
1.20997
1.20992
1.20967
1.20957
1.20936
1.20931
1.20922
1.20931
1.20935
1.20955
1.20965
1.2099
1.20995
1.2101
1.2189
1.21864
1.21842
1.21796
1.21763
1.21724
1.21705
1.21693
1.21705
1.21723
1.21762
1.21795
1.2184
1.21862
1.21889
1.21081
1.21
1.20961
1.20842
1.20795
1.20702
1.20685
1.20646
1.20684
1.207
1.20792
1.20838
1.20956
1.20994
1.21075
1.2219
1.22062
1.22014
1.21884
1.2182
1.21722
1.21695
1.21658
1.21695
1.2172
1.21819
1.2188
1.22012
1.22057
1.22188
1.21959
1.21145
1.21026
1.20559
1.20455
1.2022
1.20187
1.20108
1.20185
1.20216
1.20447
1.2055
1.21012
1.21131
1.21941
1.22629
1.22134
1.21812
1.2158
1.21454
1.21333
1.21293
1.21257
1.21293
1.21328
1.21454
1.2157
1.21813
1.22108
1.22628
1.16462
1.17522
1.17125
1.17778
1.1758
1.17985
1.17801
1.18057
1.17801
1.1799
1.17579
1.17789
1.17122
1.1756
1.16519
1.17554
1.18825
1.1867
1.19424
1.19255
1.19736
1.19515
1.1983
1.19512
1.19739
1.19245
1.1943
1.18653
1.18859
1.17575
1.1473
1.16171
1.15956
1.16877
1.1665
1.17266
1.16976
1.17389
1.16969
1.17263
1.16629
1.16866
1.15921
1.16172
1.14712
1.18901
1.19659
1.19468
1.19971
1.1977
1.2014
1.19908
1.20194
1.19903
1.20143
1.19753
1.19974
1.19437
1.19688
1.18935
1.20199
1.19802
1.19706
1.19512
1.19391
1.19378
1.19273
1.19348
1.19271
1.19394
1.19383
1.19543
1.19692
1.19912
1.20327
1.23292
1.22541
1.22465
1.22047
1.21925
1.21747
1.21694
1.21661
1.21701
1.21759
1.21943
1.22063
1.22508
1.22626
1.23507
1.19849
1.2001
1.20071
1.20135
1.20123
1.20157
1.20141
1.20169
1.2014
1.20158
1.20117
1.20129
1.20073
1.20061
1.1995
1.21759
1.21769
1.21825
1.21797
1.21795
1.21767
1.21776
1.21765
1.21779
1.2177
1.21797
1.21797
1.21845
1.21835
1.21877
1.20274
1.20355
1.20448
1.20522
1.20563
1.20602
1.20624
1.20637
1.20624
1.206
1.20557
1.20516
1.20461
1.20413
1.20374
1.21277
1.21345
1.21436
1.21505
1.21551
1.21582
1.21609
1.21616
1.2161
1.21581
1.21546
1.21501
1.21455
1.21407
1.21377
1.20522
1.2059
1.20684
1.20764
1.20817
1.20858
1.20884
1.20896
1.20884
1.20855
1.20811
1.20761
1.20703
1.20651
1.20617
1.21121
1.21181
1.21266
1.21338
1.21384
1.21416
1.21437
1.21446
1.21437
1.21413
1.21377
1.21335
1.21287
1.21241
1.21214
1.20715
1.20767
1.20842
1.20904
1.20941
1.20964
1.20977
1.20984
1.20976
1.2096
1.20934
1.20903
1.20865
1.20828
1.20806
1.21085
1.21128
1.21191
1.21239
1.21263
1.21274
1.21278
1.21282
1.21277
1.2127
1.21256
1.21238
1.21215
1.21188
1.21173
1.20856
1.20892
1.20946
1.20984
1.20999
1.21001
1.20999
1.20999
1.20997
1.20996
1.20992
1.20985
1.20972
1.20954
1.20944
1.2104
1.21073
1.21119
1.21151
1.21162
1.21159
1.21153
1.21151
1.21151
1.21153
1.21154
1.21152
1.21145
1.21132
1.21125
1.20973
1.21005
1.21051
1.21085
1.21098
1.21097
1.21092
1.2109
1.2109
1.21091
1.21091
1.21087
1.21078
1.21065
1.21057
SCALARS u-velocity float 1
LOOKUP_TABLE default
99.5577
99.564
99.5784
99.5961
99.6137
99.6305
99.64
99.6452
99.6402
99.6309
99.6142
99.5967
99.5791
99.5648
99.5585
98.7569
98.7507
98.747
98.7385
98.7314
98.7253
98.7201
98.7198
98.7201
98.7254
98.7314
98.7386
98.7471
98.7508
98.757
99.7743
99.7613
99.7419
99.714
99.6852
99.6604
99.6419
99.6374
99.6423
99.6612
99.6863
99.7154
99.7436
99.7632
99.7763
98.7022
98.6832
98.6522
98.611
98.5711
98.5351
98.5119
98.5031
98.5119
98.5352
98.5713
98.6112
98.6524
98.6833
98.7022
99.9403
99.9324
99.9101
99.8832
99.8482
99.8209
99.7978
99.7936
99.7988
99.8229
99.851
99.8868
99.9145
99.9375
99.9458
98.5019
98.4807
98.4427
98.4035
98.3671
98.3373
98.3188
98.3117
98.3191
98.338
98.368
98.4045
98.4434
98.481
98.5018
99.9985
100.043
100.073
100.123
100.136
100.167
100.166
100.182
100.168
100.172
100.142
100.131
100.084
100.056
100.013
98.1514
98.1115
98.0787
98.0854
98.0984
98.1289
98.142
98.1576
98.1433
98.132
98.102
98.0905
98.082
98.1128
98.1494
99.7145
100.02
100.195
100.487
100.623
100.82
100.864
100.935
100.869
100.829
100.638
100.505
100.22
100.053
99.7579
97.3472
97.2569
97.4022
97.653
97.841
98.0995
98.208
98.3097
98.2136
98.1126
97.8547
97.6767
97.4217
97.2713
97.3313
97.7141
99.585
99.966
101.217
101.756
102.342
102.551
102.696
102.56
102.358
101.787
101.251
100.011
99.6451
97.8543
89.5447
94.5495
96.3946
98.2272
99.2783
100.453
100.886
101.206
100.902
100.492
99.3196
98.3
96.4723
94.7032
89.4667
89.9714
94.1748
101.715
104.018
106.535
107.001
108.051
107.804
108.068
107.033
106.591
104.111
101.844
94.2444
90.2538
123.809
120.291
120.87
119.43
119.736
118.259
118.655
117.792
118.655
118.233
119.743
119.358
120.818
120.345
124.983
134.83
130.575
127.561
124.967
123.919
122.152
121.965
121.189
121.981
122.171
123.966
124.967
127.631
131.037
136
136.99
133.254
130.023
127.583
126.386
124.933
124.561
124.007
124.592
124.987
126.474
127.676
130.263
133.887
138.137
117.858
120.301
118.197
118.48
117.462
117.581
116.859
117.105
116.881
117.582
117.508
118.431
118.334
120.837
120.108
89.2919
101.701
102.678
106.34
106.621
108.745
108.37
109.323
108.336
108.675
106.476
106.051
102.392
102.3
92.1447
79.2688
90.7102
95.6968
99.166
100.393
102.178
102.347
103.008
102.304
102.121
100.174
98.8951
95.4767
91.7704
81.6883
96.1452
98.7945
102.033
103.028
103.461
103.956
104.03
104.264
104.026
103.94
103.346
102.862
102.17
100.071
98.672
91.2087
93.9326
97.0474
98.5886
99.1351
99.6514
99.7973
100.01
99.7887
99.6107
98.9731
98.3983
97.236
95.2392
93.6191
96.0567
98.0773
100.606
101.799
102.155
102.284
102.36
102.425
102.364
102.25
102.018
101.666
100.922
99.4301
98.3787
93.5969
95.5295
97.9265
99.2748
99.6985
99.8271
99.8904
99.9492
99.8896
99.7747
99.5417
99.1534
98.2968
96.9062
95.866
95.7565
97.5107
99.7175
101.055
101.498
101.569
101.601
101.626
101.598
101.508
101.343
100.968
100.146
98.8915
97.946
94.496
96.1614
98.2954
99.6984
100.216
100.309
100.331
100.348
100.321
100.233
100.054
99.6353
98.7696
97.5561
96.6458
95.5337
97.0958
99.1407
100.567
101.145
101.258
101.273
101.279
101.256
101.17
100.982
100.531
99.6511
98.4849
97.6228
94.9299
96.4204
98.4143
99.8778
100.523
100.673
100.688
100.687
100.662
100.573
100.361
99.8672
98.9594
97.8144
96.9838
95.3798
96.7958
98.7282
100.206
100.904
101.086
101.101
101.094
101.066
100.975
100.744
100.22
99.3001
98.1831
97.3879
95.2178
96.5714
98.4533
99.9423
100.686
100.897
100.913
100.899
100.869
100.777
100.529
99.9791
99.0507
97.9571
97.1923
95.3666
96.6584
98.4815
99.9624
100.733
100.965
100.978
100.957
100.926
100.836
100.581
100.021
99.0996
98.0375
97.3054
SCALARS v-velocity float 1
LOOKUP_TABLE default
0.0090149
0.0238371
0.0355214
0.0408625
0.0388818
0.0305545
0.0164464
-0.00031259
-0.017056
-0.0311293
-0.0393932
-0.0412917
-0.0358456
-0.0240395
-0.0090849
0.0181906
0.0448378
0.0705453
0.0779842
0.0768316
0.0587744
0.0328413
0.000103183
-0.0326398
-0.0585819
-0.0766575
-0.0778322
-0.0704283
-0.0447593
-0.0181676
0.00141007
0.000454935
0.00611705
0.00310138
0.00702073
0.00297483
0.0027827
-0.000518176
-0.00379274
-0.00392954
-0.00787782
-0.00382295
-0.00667892
-0.00079953
-0.0015415
-0.013465
-0.0413064
-0.0549029
-0.0697732
-0.0614476
-0.0521799
-0.0261259
0.000770424
0.0276234
0.0536155
0.0627423
0.0708966
0.0557798
0.0418748
0.0136608
-0.0430147
-0.114853
-0.16517
-0.192451
-0.178311
-0.142899
-0.0761137
-0.000533311
0.0750967
0.141882
0.177361
0.19158
0.164399
0.114358
0.0427888
-0.0487258
-0.140371
-0.204889
-0.245675
-0.230756
-0.186093
-0.0982998
0.00285571
0.103823
0.191426
0.235572
0.249893
0.208291
0.142596
0.0495647
-0.0816822
-0.207664
-0.300924
-0.339326
-0.317461
-0.24862
-0.133188
0.000332218
0.134051
0.249005
0.317663
0.339021
0.300038
0.206864
0.0810551
-0.00490739
-0.0820294
-0.129604
-0.174319
-0.172921
-0.142012
-0.0754148
0.00792108
0.0905362
0.156996
0.18647
0.186506
0.140063
0.0894176
0.0082058
-0.0502028
-0.0713103
-0.0874089
-0.102116
-0.0866017
-0.0684714
-0.0312614
0.00465818
0.0418697
0.0761565
0.0935816
0.105971
0.0876503
0.0691603
0.0461363
0.330094
0.393119
0.512273
0.533029
0.408042
0.320148
0.156414
0.0182943
-0.122833
-0.284896
-0.376657
-0.503477
-0.48641
-0.37068
-0.313791
1.0923
1.67065
1.9401
1.83102
1.59262
1.13979
0.610078
0.0213726
-0.559522
-1.10122
-1.55135
-1.80397
-1.91656
-1.66749
-1.12316
-0.31561
3.35656
2.50384
3.07258
2.02523
1.70121
0.766457
0.0356322
-0.706395
-1.63299
-1.97191
-3.01438
-2.47455
-3.33515
0.353717
23.1075
19.9848
16.0476
12.9887
9.12597
6.18922
2.98471
0.0669467
-2.82317
-6.0526
-8.94386
-12.8515
-15.8223
-19.8121
-22.8791
25.1459
16.103
13.2259
8.75635
6.68579
3.89217
2.07377
0.075817
-1.93148
-3.73767
-6.54424
-8.58632
-13.0581
-15.9047
-25.3156
11.4191
7.12649
6.79394
4.20332
3.76969
2.03608
1.23368
0.0691692
-1.14808
-1.90373
-3.71199
-4.08289
-6.79181
-7.09009
-11.6511
-8.2215
-8.54297
-4.65961
-4.77101
-2.35026
-2.0757
-0.668191
0.126672
0.848732
2.33095
2.53488
5.03746
4.86283
8.83167
8.45219
-20.8351
-18.0877
-12.0776
-10.021
-6.16975
-4.36305
-1.82119
0.156518
2.0456
4.69928
6.427
10.4366
12.4532
18.7536
21.5106
-23.278
-18.3269
-14.3258
-10.7571
-7.73967
-4.89308
-2.37389
0.189028
2.5723
5.2944
7.94052
11.2459
14.5666
19.094
23.8608
-2.42923
-0.379589
-2.05756
-1.13201
-1.56727
-0.770431
-0.542769
0.0451743
0.568471
0.846419
1.57195
1.18184
2.02926
0.314687
2.29019
-1.86795
-2.10489
-2.52612
-2.01031
-1.85053
-1.13997
-0.625648
0.0574925
0.69398
1.24394
1.91245
2.09802
2.56366
2.06369
1.84522
-0.160503
-0.174515
-0.220581
-0.0363443
-0.170008
-0.0398608
-0.0588418
0.0114687
0.0658445
0.0585737
0.182518
0.0591127
0.221402
0.128918
0.134532
-0.151382
-0.302906
-0.330711
-0.231182
-0.257069
-0.15782
-0.0956017
0.0125701
0.111747
0.180545
0.278597
0.253694
0.326992
0.258545
0.127469
-0.0326566
-0.0939215
-0.0506888
0.00085282
-0.0170655
-0.011842
-0.0131305
0.00269306
0.015937
0.0197451
0.030459
0.0137338
0.0456745
0.0628654
0.0146999
-0.0593324
-0.151303
-0.145872
-0.116952
-0.10992
-0.0921411
-0.0539529
0.000575425
0.054419
0.0972294
0.120183
0.124714
0.133369
0.118608
0.0414787
-0.0582354
-0.146423
-0.156481
-0.143935
-0.130167
-0.112117
-0.0640561
-0.00034104
0.0641535
0.117246
0.141
0.152068
0.147369
0.121909
0.044692
-0.0705388
-0.173172
-0.206084
-0.200585
-0.18045
-0.149554
-0.0852593
-0.00242488
0.0818263
0.151255
0.186882
0.202688
0.191958
0.147396
0.0572162
-0.0663001
-0.161091
-0.199332
-0.196566
-0.176846
-0.144441
-0.0821733
-0.00149926
0.0810096
0.148515
0.185088
0.200143
0.188412
0.14041
0.05561
-0.0586914
-0.141073
-0.175078
-0.168527
-0.149415
-0.120225
-0.0696547
-0.00294704
0.065794
0.12149
0.153953
0.167683
0.160932
0.119558
0.0481255
-0.0436843
-0.103509
-0.124755
-0.11362
-0.0972952
-0.0772856
-0.0456246
-0.00195459
0.043873
0.0805219
0.103155
0.113877
0.112869
0.085242
0.0347488
-0.0279013
-0.0638141
-0.0658682
-0.0466437
-0.0318731
-0.0248067
-0.016889
-0.00258722
0.0139178
0.0266466
0.0356892
0.0443129
0.0518091
0.044489
0.0187314
SCALARS Mach float 1
LOOKUP_TABLE default
30.036
30.0398
30.0486
30.0594
30.0702
30.0806
30.0864
30.0896
30.0865
30.0808
30.0705
30.0598
30.0491
30.0403
30.0365
29.5688
29.5647
29.5619
29.556
29.551
29.5467
29.5431
29.5427
29.5431
29.5467
29.551
29.5561
29.562
29.5647
29.5689
30.1679
30.1593
30.1465
30.1281
30.1092
30.0928
30.0807
30.0777
30.081
30.0933
30.1098
30.1289
30.1475
30.1605
30.1691
29.5415
29.5294
29.5096
29.4832
29.4575
29.4344
29.4194
29.4139
29.4195
29.4345
29.4577
29.4833
29.5097
29.5295
29.5416
30.2654
30.2599
30.2451
30.227
30.2041
30.1859
30.1708
30.1678
30.1715
30.1871
30.2058
30.2293
30.2478
30.263
30.2687
29.4245
29.4115
29.3879
29.3634
29.3404
29.3215
29.3097
29.3051
29.3099
29.3219
29.341
29.3641
29.3883
29.4118
29.4245
30.2922
30.3195
30.3371
30.3672
30.3747
30.3935
30.3923
30.4021
30.3938
30.3963
30.3788
30.3725
30.3439
30.3275
30.3013
29.2162
29.1933
29.1741
29.1794
29.1877
29.2068
29.2148
29.2245
29.2156
29.2087
29.1898
29.1826
29.1763
29.1943
29.2152
30.1069
30.293
30.4004
30.5809
30.6654
30.7873
30.8152
30.8593
30.8182
30.793
30.6746
30.5918
30.4156
30.3131
30.1332
28.7425
28.6932
28.7803
28.9339
29.047
29.2048
29.2699
29.3324
29.2733
29.2127
29.0552
28.9481
28.792
28.7019
28.7333
28.8843
30.0158
30.2543
31.0244
31.3578
31.7223
31.8508
31.9419
31.8561
31.7319
31.3764
31.0451
30.2814
30.0522
28.9678
24.3232
27.1733
28.2249
29.3326
29.9483
30.6661
30.9246
31.1223
30.934
30.689
29.9729
29.3751
28.2704
27.2618
24.2815
26.0416
28.0111
32.0765
33.2657
34.6242
34.8001
35.3992
35.2137
35.4071
34.8161
34.6505
33.3149
32.1346
28.0307
26.1634
48.7541
44.9268
45.1173
43.7173
43.8574
42.6688
42.9347
42.282
42.9333
42.6466
43.8571
43.6556
45.0655
44.9474
49.687
55.8578
52.075
49.6897
47.5469
46.752
45.363
45.2306
44.63
45.2428
45.3753
46.7869
47.5435
49.7459
52.4447
56.8576
57.6767
54.4844
51.7458
49.7512
48.7897
47.6234
47.3526
46.8982
47.3777
47.6679
48.8622
49.8323
51.9471
55.0247
58.6749
43.574
44.9765
42.9217
42.9503
42.0479
42.0479
41.5042
41.6476
41.5226
42.0578
42.0916
42.9401
43.0506
45.4482
45.3115
25.8355
32.4382
32.6593
34.7202
34.7398
36.0202
35.7247
36.3324
35.7058
35.9856
34.6558
34.5637
32.5034
32.8987
27.5048
18.9643
24.8677
27.7068
29.767
30.5188
31.6188
31.7264
32.1385
31.6997
31.5831
30.3849
29.6028
27.5777
25.4558
20.1437
28.06
29.6365
31.6266
32.2397
32.5108
32.8141
32.8599
33.0056
32.8582
32.8047
32.4385
32.1364
31.7136
30.4132
29.5673
25.1649
26.7009
28.5107
29.4296
29.7576
30.0701
30.1585
30.2879
30.1532
30.0453
29.6595
29.3148
28.6223
27.4548
26.5236
27.9821
29.1781
30.7095
31.444
31.6628
31.7408
31.7873
31.8275
31.7899
31.7199
31.5774
31.3612
30.904
29.9957
29.3634
26.5238
27.6362
29.047
29.855
30.1095
30.1858
30.2231
30.2586
30.2226
30.1537
30.0139
29.7813
29.2689
28.4453
27.8365
27.7976
28.8306
30.1564
30.9733
31.2447
31.2862
31.305
31.3195
31.3031
31.2481
31.1482
30.9195
30.4184
29.6601
29.0946
27.044
28.0105
29.2735
30.1181
30.4313
30.4863
30.4989
30.5088
30.4927
30.4396
30.3319
30.0796
29.559
28.836
28.2992
27.661
28.5779
29.8005
30.6679
31.0217
31.0904
31.099
31.1021
31.0882
31.036
30.9214
30.6457
30.1108
29.4086
28.8947
27.2944
28.163
29.3461
30.2298
30.6232
30.7142
30.723
30.7224
30.707
30.6527
30.5234
30.2233
29.6749
28.9904
28.4986
27.569
28.3984
29.5502
30.4465
30.8743
30.9862
30.9956
30.991
30.9741
30.9179
30.7758
30.4549
29.8965
29.2255
28.7523
27.4568
28.2475
29.3656
30.2659
30.7204
30.8506
30.86
30.8515
30.8331
30.7762
30.6241
30.2883
29.7262
29.0711
28.6173
27.5693
28.3255
29.4105
30.307
30.7791
30.9221
30.9303
30.9173
30.8978
30.8422
30.6856
30.3428
29.7841
29.1467
28.7115
