# vtk DataFile Version 3.0
Structured Grid Example
ASCII
DATASET STRUCTURED_GRID
DIMENSIONS 15 30 1
POINTS 450 FLOAT
0.0833327 0.0333334 0
0.0833313 0.1 0
0.0833301 0.166667 0
0.083329 0.233333 0
0.0833281 0.3 0
0.0833274 0.366667 0
0.083327 0.433333 0
0.0833268 0.5 0
0.083327 0.566667 0
0.0833274 0.633333 0
0.0833281 0.7 0
0.083329 0.766667 0
0.0833301 0.833333 0
0.0833313 0.9 0
0.0833327 0.966667 0
0.249998 0.0333334 0
0.249993 0.1 0
0.249989 0.166667 0
0.249986 0.233334 0
0.249983 0.3 0
0.24998 0.366667 0
0.249979 0.433333 0
0.249979 0.5 0
0.249979 0.566667 0
0.24998 0.633333 0
0.249983 0.7 0
0.249986 0.766666 0
0.249989 0.833333 0
0.249993 0.9 0
0.249998 0.966667 0
0.416662 0.0333336 0
0.416654 0.100001 0
0.416646 0.166668 0
0.416639 0.233334 0
0.416633 0.300001 0
0.416628 0.366667 0
0.416626 0.433334 0
0.416625 0.5 0
0.416626 0.566666 0
0.416628 0.633333 0
0.416633 0.699999 0
0.416639 0.766666 0
0.416646 0.833332 0
0.416654 0.899999 0
0.416662 0.966666 0
0.583326 0.033334 0
0.58331 0.100002 0
0.583296 0.166669 0
0.583284 0.233336 0
0.583273 0.300003 0
0.583266 0.366669 0
0.583261 0.433335 0
0.583259 0.5 0
0.583261 0.566665 0
0.583266 0.633331 0
0.583273 0.699997 0
0.583284 0.766664 0
0.583296 0.833331 0
0.58331 0.899998 0
0.583326 0.966666 0
0.749987 0.0333351 0
0.749961 0.100005 0
0.749937 0.166674 0
0.749915 0.233342 0
0.749898 0.300008 0
0.749884 0.366673 0
0.749876 0.433337 0
0.749874 0.5 0
0.749876 0.566663 0
0.749884 0.633327 0
0.749898 0.699992 0
0.749915 0.766658 0
0.749937 0.833326 0
0.749961 0.899995 0
0.749987 0.966665 0
0.916644 0.033338 0
0.916601 0.100013 0
0.91656 0.166686 0
0.916524 0.233356 0
0.916494 0.300021 0
0.916472 0.366683 0
0.916458 0.433342 0
0.916454 0.5 0
0.916458 0.566658 0
0.916472 0.633317 0
0.916494 0.699979 0
0.916524 0.766644 0
0.91656 0.833314 0
0.916601 0.899987 0
0.916644 0.966662 0
1.0833 0.0333461 0
1.08322 0.100036 0
1.08315 0.166719 0
1.08309 0.233394 0
1.08304 0.300058 0
1.08301 0.366712 0
1.08298 0.433358 0
1.08298 0.5 0
1.08298 0.566642 0
1.08301 0.633288 0
1.08304 0.699942 0
1.08309 0.766606 0
1.08315 0.833281 0
1.08322 0.899964 0
1.0833 0.966654 0
1.24994 0.0333682 0
1.24981 0.100098 0
1.2497 0.16681 0
1.24959 0.233497 0
1.24951 0.300156 0
1.24945 0.366788 0
1.24942 0.433399 0
1.2494 0.5 0
1.24942 0.566601 0
1.24945 0.633212 0
1.24951 0.699844 0
1.24959 0.766503 0
1.2497 0.83319 0
1.24981 0.899902 0
1.24994 0.966632 0
1.41656 0.0334298 0
1.41634 0.10027 0
1.41615 0.16706 0
1.41598 0.233778 0
1.41585 0.300419 0
1.41575 0.36699 0
1.41569 0.433509 0
1.41567 0.5 0
1.41569 0.566491 0
1.41575 0.63301 0
1.41585 0.699581 0
1.41598 0.766222 0
1.41615 0.83294 0
1.41634 0.89973 0
1.41656 0.96657 0
1.58313 0.0336075 0
1.58275 0.10076 0
1.58242 0.167751 0
1.58215 0.234537 0
1.58195 0.301115 0
1.58181 0.367517 0
1.58173 0.433791 0
1.58171 0.5 0
1.58173 0.566209 0
1.58181 0.632483 0
1.58195 0.698885 0
1.58215 0.765463 0
1.58242 0.832249 0
1.58275 0.89924 0
1.58313 0.966392 0
1.74959 0.0341677 0
1.74885 0.102235 0
1.74829 0.169714 0
1.74791 0.236575 0
1.74766 0.302905 0
1.74751 0.368829 0
1.74744 0.434482 0
1.74741 0.5 0
1.74744 0.565518 0
1.74751 0.631171 0
1.74766 0.697095 0
1.74791 0.763425 0
1.74829 0.830286 0
1.74885 0.897765 0
1.74959 0.965832 0
1.91555 0.0363295 0
1.91388 0.107253 0
1.91312 0.175401 0
1.91283 0.241837 0
1.91276 0.307169 0
1.91277 0.371793 0
1.9128 0.435995 0
1.91281 0.5 0
1.9128 0.564005 0
1.91277 0.628207 0
1.91276 0.692831 0
1.91283 0.758163 0
1.91312 0.824599 0
1.91388 0.892747 0
1.91555 0.963671 0
2.07838 0.0591504 0
2.07417 0.125973 0
2.07554 0.190391 0
2.07663 0.253364 0
2.07743 0.315525 0
2.07798 0.377223 0
2.07829 0.438667 0
2.0784 0.5 0
2.07829 0.561333 0
2.07798 0.622777 0
2.07743 0.684475 0
2.07663 0.746636 0
2.07554 0.809609 0
2.07417 0.874027 0
2.07838 0.94085 0
2.24384 0.096456 0
2.23911 0.153168 0
2.24152 0.210396 0
2.24318 0.267878 0
2.24431 0.325632 0
2.24503 0.383617 0
2.24544 0.441767 0
2.24557 0.5 0
2.24544 0.558233 0
2.24503 0.616383 0
2.24431 0.674368 0
2.24318 0.732122 0
2.24152 0.789604 0
2.23911 0.846832 0
2.24384 0.903544 0
2.41462 0.118677 0
2.41292 0.170231 0
2.41356 0.223198 0
2.41406 0.277268 0
2.41444 0.332207 0
2.4147 0.387788 0
2.41485 0.44379 0
2.4149 0.5 0
2.41485 0.55621 0
2.4147 0.612212 0
2.41444 0.667793 0
2.41406 0.722732 0
2.41356 0.776802 0
2.41292 0.829769 0
2.41462 0.881323 0
2.58538 0.118677 0
2.58708 0.170231 0
2.58644 0.223198 0
2.58594 0.277268 0
2.58556 0.332207 0
2.5853 0.387788 0
2.58515 0.44379 0
2.5851 0.5 0
2.58515 0.55621 0
2.5853 0.612212 0
2.58556 0.667793 0
2.58594 0.722732 0
2.58644 0.776802 0
2.58708 0.829769 0
2.58538 0.881323 0
2.75616 0.096456 0
2.76089 0.153168 0
2.75848 0.210396 0
2.75682 0.267878 0
2.75569 0.325632 0
2.75497 0.383617 0
2.75456 0.441767 0
2.75443 0.5 0
2.75456 0.558233 0
2.75497 0.616383 0
2.75569 0.674368 0
2.75682 0.732122 0
2.75848 0.789604 0
2.76089 0.846832 0
2.75616 0.903544 0
2.92162 0.0591504 0
2.92583 0.125973 0
2.92446 0.190391 0
2.92337 0.253364 0
2.92257 0.315525 0
2.92202 0.377223 0
2.92171 0.438667 0
2.9216 0.5 0
2.92171 0.561333 0
2.92202 0.622777 0
2.92257 0.684475 0
2.92337 0.746636 0
2.92446 0.809609 0
2.92583 0.874027 0
2.92162 0.94085 0
3.08445 0.0363295 0
3.08612 0.107253 0
3.08688 0.175401 0
3.08717 0.241837 0
3.08724 0.307169 0
3.08723 0.371793 0
3.0872 0.435995 0
3.08719 0.5 0
3.0872 0.564005 0
3.08723 0.628207 0
3.08724 0.692831 0
3.08717 0.758163 0
3.08688 0.824599 0
3.08612 0.892747 0
3.08445 0.963671 0
3.25041 0.0341677 0
3.25115 0.102235 0
3.25171 0.169714 0
3.25209 0.236575 0
3.25234 0.302905 0
3.25249 0.368829 0
3.25256 0.434482 0
3.25259 0.5 0
3.25256 0.565518 0
3.25249 0.631171 0
3.25234 0.697095 0
3.25209 0.763425 0
3.25171 0.830286 0
3.25115 0.897765 0
3.25041 0.965832 0
3.41687 0.0336075 0
3.41725 0.10076 0
3.41758 0.167751 0
3.41785 0.234537 0
3.41805 0.301115 0
3.41819 0.367517 0
3.41827 0.433791 0
3.41829 0.5 0
3.41827 0.566209 0
3.41819 0.632483 0
3.41805 0.698885 0
3.41785 0.765463 0
3.41758 0.832249 0
3.41725 0.89924 0
3.41687 0.966392 0
3.58344 0.0334298 0
3.58366 0.10027 0
3.58385 0.16706 0
3.58402 0.233778 0
3.58415 0.300419 0
3.58425 0.36699 0
3.58431 0.433509 0
3.58433 0.5 0
3.58431 0.566491 0
3.58425 0.63301 0
3.58415 0.699581 0
3.58402 0.766222 0
3.58385 0.83294 0
3.58366 0.89973 0
3.58344 0.96657 0
3.75006 0.0333682 0
3.75019 0.100098 0
3.7503 0.16681 0
3.75041 0.233497 0
3.75049 0.300156 0
3.75055 0.366788 0
3.75058 0.433399 0
3.7506 0.5 0
3.75058 0.566601 0
3.75055 0.633212 0
3.75049 0.699844 0
3.75041 0.766503 0
3.7503 0.83319 0
3.75019 0.899902 0
3.75006 0.966632 0
3.9167 0.0333461 0
3.91678 0.100036 0
3.91685 0.166719 0
3.91691 0.233394 0
3.91696 0.300058 0
3.91699 0.366712 0
3.91702 0.433358 0
3.91702 0.5 0
3.91702 0.566642 0
3.91699 0.633288 0
3.91696 0.699942 0
3.91691 0.766606 0
3.91685 0.833281 0
3.91678 0.899964 0
3.9167 0.966654 0
4.08336 0.033338 0
4.0834 0.100013 0
4.08344 0.166686 0
4.08348 0.233356 0
4.08351 0.300021 0
4.08353 0.366683 0
4.08354 0.433342 0
4.08355 0.5 0
4.08354 0.566658 0
4.08353 0.633317 0
4.08351 0.699979 0
4.08348 0.766644 0
4.08344 0.833314 0
4.0834 0.899987 0
4.08336 0.966662 0
4.25001 0.0333351 0
4.25004 0.100005 0
4.25006 0.166674 0
4.25008 0.233342 0
4.2501 0.300008 0
4.25012 0.366673 0
4.25012 0.433337 0
4.25013 0.5 0
4.25012 0.566663 0
4.25012 0.633327 0
4.2501 0.699992 0
4.25008 0.766658 0
4.25006 0.833326 0
4.25004 0.899995 0
4.25001 0.966665 0
4.41667 0.033334 0
4.41669 0.100002 0
4.4167 0.166669 0
4.41672 0.233336 0
4.41673 0.300003 0
4.41673 0.366669 0
4.41674 0.433335 0
4.41674 0.5 0
4.41674 0.566665 0
4.41673 0.633331 0
4.41673 0.699997 0
4.41672 0.766664 0
4.4167 0.833331 0
4.41669 0.899998 0
4.41667 0.966666 0
4.58334 0.0333336 0
4.58335 0.100001 0
4.58335 0.166668 0
4.58336 0.233334 0
4.58337 0.300001 0
4.58337 0.366667 0
4.58337 0.433334 0
4.58338 0.5 0
4.58337 0.566666 0
4.58337 0.633333 0
4.58337 0.699999 0
4.58336 0.766666 0
4.58335 0.833332 0
4.58335 0.899999 0
4.58334 0.966666 0
4.75 0.0333334 0
4.75001 0.1 0
4.75001 0.166667 0
4.75001 0.233334 0
4.75002 0.3 0
4.75002 0.366667 0
4.75002 0.433333 0
4.75002 0.5 0
4.75002 0.566667 0
4.75002 0.633333 0
4.75002 0.7 0
4.75001 0.766666 0
4.75001 0.833333 0
4.75001 0.9 0
4.75 0.966667 0
4.91667 0.0333334 0
4.91667 0.1 0
4.91667 0.166667 0
4.91667 0.233333 0
4.91667 0.3 0
4.91667 0.366667 0
4.91667 0.433333 0
4.91667 0.5 0
4.91667 0.566667 0
4.91667 0.633333 0
4.91667 0.7 0
4.91667 0.766667 0
4.91667 0.833333 0
4.91667 0.9 0
4.91667 0.966667 0
POINT_DATA 450
SCALARS pressure float 1
LOOKUP_TABLE default
94472.4
94472.5
94472.6
94472.8
94472.9
94473.1
94473.2
94473.2
94473.1
94473.1
94472.9
94472.8
94472.6
94472.5
94472.4
94205.8
94205.8
94206
94206.1
94206.4
94206.4
94206.7
94206.6
94206.6
94206.4
94206.3
94206
94205.9
94205.7
94205.6
94535.3
94535.2
94535.2
94535.1
94535
94534.9
94534.8
94534.8
94534.8
94534.9
94534.9
94535
94535.1
94535.2
94535.3
94138
94137.6
94137.4
94136.4
94136.3
94135.3
94135.5
94134.8
94135.4
94135.2
94136.2
94136.2
94137.2
94137.3
94137.7
94615.1
94614.6
94614
94613
94612.1
94611.1
94610.7
94610.3
94610.7
94611.1
94612
94612.8
94613.9
94614.5
94615
94053.4
94051.6
94051.2
94047.4
94047.2
94043.1
94044.1
94041.2
94043.9
94042.8
94046.7
94046.9
94050.6
94050.9
94052.6
94720.7
94719
94717.6
94714
94712.2
94708.6
94708.2
94706.3
94708.1
94708.4
94712
94713.6
94717.3
94718.7
94720.3
93952.5
93944.3
93943.5
93928.1
93928.3
93913.3
93917.5
93907.2
93917.1
93912.5
93927.2
93926.7
93941.8
93942.4
93950.5
94882
94870
94864.4
94845.9
94840.1
94824.3
94824.1
94815.6
94823.9
94823.6
94839.6
94844.8
94863.5
94868.7
94880.8
93907.9
93841.8
93835.7
93754.9
93750.3
93688.8
93698.7
93664.4
93697.7
93687
93747.2
93751.2
93830.9
93836.7
93902.4
95281.3
95139.9
95101.5
94990.7
94958.4
94887.5
94883
94851
94882.6
94885.4
94957.2
94986.7
95099.7
95134.9
95278.7
94573
93812.3
93770.3
93352.6
93302
93103.2
93096.4
93024.8
93094.1
93099.7
93294.6
93344.7
93757.5
93798.1
94554.4
96100.7
95459.3
95050.4
94755.9
94614.5
94481.2
94443.8
94403.9
94443.2
94475.5
94613.3
94742.8
95050.2
95434.5
96101.5
89134.2
90212.1
89827.7
90519
90314.8
90747.3
90554.6
90828.5
90554.3
90752
90314
90531.2
89826.7
90238.7
89126.1
90209.3
91518.9
91409.6
92231.9
92070.6
92592.3
92363.6
92702.6
92360.2
92595.3
92059.9
92239.1
91390.6
91532.4
90173.5
87371.5
88849.1
88627.5
89612.4
89372.4
90029.7
89717
90161.3
89710.1
90026.2
89350.6
89602.3
88587.3
88824.1
87297.1
91766.4
92526.6
92295.2
92847.8
92625.7
93036.5
92780.3
93098.4
92774.6
93039.7
92607.2
92853.4
92258.9
92530
91702.9
93241.9
92723.9
92592.6
92411.5
92287.6
92288.9
92170.2
92260.9
92167.4
92305.7
92278.9
92449.5
92575
92796
93236.7
96862.9
95831.3
95650.2
95164.1
95022.7
94821.8
94754.5
94719.9
94761.1
94834.5
95044.7
95189.9
95693.8
95869.7
96962.7
93015.1
93089.2
93063.4
93092
93060.6
93082.3
93049.2
93077.7
93048.2
93083.7
93057.3
93093.2
93057.1
93086.7
93006.4
95124.8
95042.4
95001.6
94907
94869.6
94808.8
94795.2
94775.5
94797.6
94813.3
94876.6
94915
95012.1
95052.4
95137.7
93521.4
93524.5
93522
93523.9
93519.2
93521.7
93516.3
93520.6
93516.1
93521.8
93518.7
93523.9
93521.3
93524.3
93521.1
94623
94615.5
94607.8
94592.9
94585
94572.5
94569.8
94564.9
94570.4
94573.6
94586.5
94594.7
94609.8
94617.4
94624.9
93784.2
93784.1
93783.5
93782.7
93781.6
93781
93780.2
93780.3
93780.2
93781.1
93781.8
93783
93783.8
93784.6
93784.8
94409.3
94408.2
94406.6
94404
94402.4
94399.9
94399.4
94398.3
94399.5
94400
94402.6
94404.2
94406.8
94408.3
94409.3
93923.9
93924
93924.1
93924
93924
93923.8
93923.9
93923.8
93924
93924
93924.2
93924.3
93924.4
93924.5
93924.5
94303.7
94303.7
94303.5
94303.3
94303.2
94303
94303.1
94302.9
94303.1
94302.9
94303.2
94303.2
94303.3
94303.4
94303.5
93994.3
93994.5
93994.9
93995.3
93995.8
93996.2
93996.5
93996.6
93996.6
93996.3
93996.1
93995.6
93995.3
93994.9
93994.7
94255.1
94255.2
94255.4
94255.7
94255.9
94256.1
94256.4
94256.4
94256.3
94256.1
94255.9
94255.6
94255.3
94255.1
94254.9
94024.3
94024.5
94025
94025.4
94025.8
94026.1
94026.3
94026.4
94026.4
94026.3
94026.1
94025.8
94025.5
94025.1
94025
SCALARS density float 1
LOOKUP_TABLE default
1.21458
1.21458
1.21459
1.21459
1.21459
1.21459
1.21459
1.21459
1.21459
1.21459
1.21459
1.21459
1.21459
1.21459
1.21458
1.21212
1.21212
1.21212
1.21212
1.21213
1.21213
1.21213
1.21213
1.21213
1.21213
1.21213
1.21212
1.21212
1.21212
1.21212
1.21515
1.21515
1.21515
1.21515
1.21515
1.21515
1.21515
1.21515
1.21515
1.21515
1.21515
1.21515
1.21515
1.21515
1.21515
1.2115
1.2115
1.2115
1.21149
1.21149
1.21148
1.21148
1.21148
1.21148
1.21148
1.21149
1.21149
1.21149
1.21149
1.2115
1.21588
1.21587
1.21587
1.21586
1.21585
1.21585
1.21584
1.21584
1.21584
1.21585
1.21585
1.21586
1.21587
1.21587
1.21588
1.21073
1.21072
1.21072
1.21068
1.21068
1.21065
1.21066
1.21063
1.21066
1.21065
1.21068
1.21068
1.21071
1.21071
1.21073
1.21683
1.21682
1.21681
1.21677
1.21676
1.21673
1.21672
1.2167
1.21672
1.21672
1.21676
1.21677
1.2168
1.21682
1.21683
1.20986
1.20979
1.20979
1.20965
1.20965
1.20952
1.20956
1.20946
1.20955
1.20951
1.20964
1.20964
1.20977
1.20978
1.20985
1.21819
1.21808
1.21805
1.21789
1.21785
1.2177
1.2177
1.21762
1.2177
1.2177
1.21784
1.21788
1.21804
1.21807
1.21818
1.20981
1.2092
1.2091
1.20832
1.20826
1.20768
1.20777
1.20745
1.20776
1.20767
1.20823
1.20829
1.20906
1.20916
1.20976
1.22087
1.2198
1.21963
1.21877
1.21856
1.21796
1.21794
1.21766
1.21794
1.21794
1.21855
1.21874
1.21962
1.21975
1.22086
1.21869
1.21073
1.20983
1.20555
1.20487
1.20285
1.20273
1.20202
1.2027
1.20281
1.20479
1.20546
1.2097
1.21059
1.21852
1.22567
1.22088
1.21786
1.21579
1.21476
1.21374
1.21347
1.21315
1.21347
1.21369
1.21476
1.21569
1.21787
1.22062
1.22567
1.16442
1.17506
1.17118
1.17779
1.17588
1.18001
1.1782
1.18079
1.1782
1.18005
1.17588
1.1779
1.17115
1.17544
1.16499
1.17546
1.18818
1.18667
1.19424
1.19259
1.19743
1.19525
1.19841
1.19522
1.19747
1.19249
1.1943
1.1865
1.18852
1.17567
1.14718
1.16161
1.15949
1.16874
1.16651
1.17272
1.16983
1.17398
1.16977
1.17269
1.1663
1.16863
1.15914
1.16161
1.14701
1.18884
1.19645
1.19459
1.19968
1.19773
1.20148
1.19919
1.20207
1.19915
1.20151
1.19755
1.19971
1.19428
1.19673
1.18918
1.20182
1.19785
1.19694
1.19507
1.19393
1.19387
1.19285
1.19363
1.19283
1.19403
1.19385
1.19538
1.1968
1.19895
1.2031
1.23291
1.22538
1.22462
1.22043
1.21921
1.21744
1.21689
1.21658
1.21696
1.21755
1.21938
1.22059
1.22505
1.22622
1.23506
1.19885
1.20037
1.20088
1.20136
1.2011
1.20132
1.20106
1.20133
1.20106
1.20133
1.20103
1.2013
1.20089
1.20088
1.19986
1.21832
1.21828
1.21864
1.21807
1.21777
1.21724
1.21715
1.21699
1.21718
1.21727
1.21778
1.21807
1.21884
1.21894
1.2195
1.20376
1.20438
1.20503
1.20537
1.20538
1.20542
1.20539
1.20545
1.2054
1.2054
1.20532
1.20531
1.20516
1.20496
1.20475
1.21391
1.2144
1.21498
1.21519
1.2152
1.21509
1.21508
1.21505
1.21509
1.21508
1.21514
1.21515
1.21516
1.21501
1.21491
1.20628
1.20677
1.20739
1.20775
1.20784
1.20784
1.20784
1.20786
1.20784
1.20781
1.20777
1.20771
1.20757
1.20738
1.20722
1.21203
1.21249
1.21307
1.21342
1.21353
1.21351
1.21352
1.21351
1.21351
1.21348
1.21346
1.21339
1.21327
1.21309
1.21295
1.20765
1.20809
1.20866
1.20905
1.20919
1.20921
1.20921
1.20921
1.2092
1.20917
1.20912
1.20903
1.20889
1.2087
1.20856
1.21105
1.21146
1.21201
1.2124
1.21255
1.21257
1.21256
1.21256
1.21255
1.21252
1.21247
1.21239
1.21224
1.21206
1.21193
1.20851
1.2089
1.20945
1.20985
1.21003
1.21006
1.21006
1.21005
1.21004
1.21001
1.20995
1.20986
1.2097
1.20951
1.20939
1.21027
1.21063
1.21115
1.21154
1.21172
1.21176
1.21175
1.21175
1.21173
1.21171
1.21165
1.21155
1.2114
1.21123
1.21111
1.20965
1.21
1.2105
1.2109
1.2111
1.21114
1.21114
1.21113
1.21111
1.21109
1.21103
1.21093
1.21077
1.2106
1.21049
SCALARS u-velocity float 1
LOOKUP_TABLE default
99.5979
99.5984
99.5989
99.5999
99.6002
99.601
99.601
99.6016
99.6013
99.6016
99.601
99.6009
99.6002
99.5998
99.5994
98.7397
98.7392
98.7384
98.7375
98.7367
98.7361
98.7357
98.7356
98.7358
98.7363
98.7371
98.738
98.739
98.7399
98.7404
99.6999
99.7019
99.7038
99.7072
99.7087
99.7115
99.7117
99.7133
99.7122
99.7125
99.7101
99.709
99.7059
99.7042
99.7023
98.6089
98.6068
98.6038
98.6011
98.5992
98.5981
98.5976
98.5975
98.5977
98.5984
98.5996
98.6015
98.6042
98.6071
98.6092
99.8398
99.8489
99.8584
99.8733
99.8802
99.8917
99.8929
99.8989
99.8939
99.8936
99.883
99.8769
99.8629
99.854
99.8453
98.4265
98.4163
98.4035
98.3951
98.3904
98.39
98.389
98.3904
98.3892
98.3906
98.3911
98.396
98.404
98.4164
98.4262
99.9668
100.014
100.056
100.118
100.144
100.189
100.194
100.215
100.196
100.193
100.151
100.126
100.066
100.027
99.9813
98.177
98.1295
98.0923
98.0885
98.0924
98.1151
98.1212
98.1364
98.1224
98.118
98.0956
98.0932
98.0952
98.1304
98.1744
99.7843
100.074
100.23
100.494
100.602
100.773
100.799
100.865
100.804
100.782
100.616
100.511
100.255
100.107
99.827
97.446
97.3369
97.453
97.6626
97.8103
98.0321
98.1166
98.2095
98.1221
98.045
97.8237
97.6859
97.472
97.3506
97.4295
97.8108
99.6658
100.015
101.225
101.723
102.272
102.458
102.593
102.466
102.288
101.754
101.259
100.059
99.7255
97.9505
89.608
94.6059
96.4244
98.2278
99.2461
100.393
100.809
101.121
100.824
100.431
99.2872
98.3002
96.5018
94.7592
89.5293
90.0041
94.2077
101.738
104.029
106.532
106.985
108.028
107.777
108.044
107.017
106.588
104.121
101.866
94.2768
90.2848
123.814
120.301
120.884
119.447
119.758
118.283
118.684
117.819
118.684
118.258
119.765
119.375
120.832
120.354
124.986
134.831
130.578
127.566
124.975
123.93
122.166
121.981
121.205
121.998
122.185
123.977
124.975
127.636
131.039
136.001
137
133.26
130.023
127.581
126.379
124.924
124.55
123.996
124.581
124.978
126.467
127.674
130.263
133.893
138.146
117.889
120.317
118.2
118.468
117.437
117.545
116.816
117.059
116.838
117.546
117.483
118.418
118.336
120.852
120.138
89.3312
101.723
102.68
106.318
106.58
108.685
108.299
109.247
108.266
108.615
106.434
106.029
102.394
102.321
92.1838
79.2921
90.7301
95.7015
99.1548
100.365
102.138
102.298
102.955
102.255
102.08
100.147
98.8838
95.481
91.7898
81.7113
96.1388
98.794
102.03
103.027
103.461
103.957
104.032
104.266
104.028
103.941
103.346
102.862
102.168
100.07
98.6657
91.1794
93.914
97.0394
98.5969
99.1587
99.6894
99.8455
100.061
99.837
99.649
98.9971
98.4067
97.2276
95.2204
93.5901
95.997
98.0338
100.584
101.807
102.192
102.348
102.443
102.514
102.447
102.315
102.056
101.675
100.899
99.3863
98.3193
93.5168
95.4667
97.8913
99.2753
99.7348
99.8966
99.9821
100.049
99.9814
99.8447
99.5786
99.1541
98.2612
96.8431
95.7862
95.6697
97.4392
99.6736
101.045
101.523
101.626
101.679
101.712
101.676
101.565
101.368
100.959
100.102
98.8197
97.8596
94.4234
96.0986
98.2533
99.6802
100.222
100.338
100.375
100.399
100.365
100.263
100.06
99.6172
98.7272
97.4931
96.5736
95.4957
97.0607
99.1154
100.551
101.139
101.262
101.282
101.292
101.265
101.175
100.977
100.515
99.6255
98.4496
97.585
94.9413
96.4276
98.4187
99.8755
100.515
100.659
100.669
100.669
100.643
100.559
100.352
99.8647
98.9636
97.8215
96.9952
95.4308
96.8379
98.758
100.217
100.897
101.063
101.067
101.056
101.032
100.952
100.737
100.231
99.3296
98.2251
97.4387
95.2909
96.6339
98.4978
99.9624
100.681
100.871
100.872
100.852
100.828
100.75
100.525
99.9988
99.0949
98.0192
97.2651
95.4199
96.7036
98.5119
99.9733
100.725
100.939
100.941
100.915
100.888
100.809
100.573
100.032
99.1299
98.0827
97.3585
SCALARS v-velocity float 1
LOOKUP_TABLE default
-0.000415944
-0.000871036
-0.00138282
-0.00142191
-0.001414
-0.00107699
-0.000707048
-0.000219587
0.000277984
0.0006729
0.00105306
0.00111913
0.00115245
0.000727633
0.000366003
0.000175958
-7.6733e-05
0.000167495
-0.000166452
3.62755e-05
-5.90967e-05
0.000221584
0.000411931
0.000583092
0.00081594
0.000638316
0.000731465
0.000261146
0.000343844
-8.35385e-05
-0.00158648
-0.00386332
-0.00570966
-0.00611255
-0.00572962
-0.00432562
-0.00239953
-0.000113062
0.00218242
0.00410899
0.00552711
0.00592717
0.00555289
0.00376152
0.00154548
0.00239058
0.00381268
0.00659301
0.00587963
0.00611711
0.00433826
0.00314578
0.00128962
-0.0006313
-0.00196025
-0.00398819
-0.00407777
-0.00520421
-0.00294008
-0.00208082
-0.00327246
-0.00788077
-0.0104666
-0.0102571
-0.00873723
-0.00621119
-0.00317474
1.52707e-05
0.00323663
0.00619083
0.00867412
0.0101055
0.0102419
0.00770827
0.00316881
0.0143832
0.0260979
0.040919
0.0392621
0.0382146
0.027822
0.0170644
0.00338988
-0.0104888
-0.0215211
-0.0325378
-0.034351
-0.036991
-0.023564
-0.0134269
-0.00583689
-0.0103516
-0.00576905
-0.000928959
0.00470113
0.00523653
0.00464925
0.000781635
-0.00289391
-0.00403193
-0.00376084
0.00121982
0.00534363
0.00982174
0.005314
0.0740614
0.121193
0.177707
0.174782
0.161701
0.119603
0.0674316
0.00827812
-0.0515968
-0.103971
-0.147566
-0.16213
-0.166889
-0.113601
-0.0706846
0.0162104
0.0974572
0.171046
0.187934
0.193703
0.148456
0.0879972
0.00481701
-0.0770622
-0.140476
-0.186441
-0.183858
-0.170624
-0.0995092
-0.0202377
0.378285
0.512537
0.698552
0.738452
0.608766
0.47322
0.241383
0.0183054
-0.20774
-0.437944
-0.577327
-0.708885
-0.672664
-0.4901
-0.362002
1.11564
1.72319
2.0254
1.91932
1.68102
1.20413
0.646645
0.0212268
-0.596374
-1.1658
-1.63995
-1.8924
-2.00197
-1.72013
-1.14655
-0.313521
3.36052
2.51084
3.0733
2.02811
1.69912
0.766565
0.0354216
-0.706856
-1.63129
-1.97508
-3.01543
-2.48185
-3.33946
0.351317
23.1025
19.9535
15.996
12.924
9.06409
6.13831
2.95723
0.066578
-2.79645
-6.00226
-8.88253
-12.787
-15.7709
-19.7806
-22.8737
25.1278
16.0655
13.1684
8.69178
6.62521
3.84401
2.04786
0.0752555
-1.90675
-3.69046
-6.48452
-8.52225
-13.0008
-15.8671
-25.2972
11.408
7.10012
6.75469
4.15944
3.72781
2.0032
1.21553
0.0685539
-1.13121
-1.87194
-3.67108
-4.03973
-6.75301
-7.06392
-11.6398
-8.23312
-8.56889
-4.69771
-4.81344
-2.39079
-2.10741
-0.685778
0.126032
0.864922
2.36151
2.57429
5.07906
4.90031
8.8572
8.46379
-20.8607
-18.1324
-12.1388
-10.0858
-6.23068
-4.40951
-1.84689
0.155805
2.06975
4.74443
6.48669
10.5005
12.5137
18.7977
21.5361
-23.3218
-18.4102
-14.4376
-10.8785
-7.85081
-4.97902
-2.42025
0.188196
2.61674
5.37877
8.05009
11.366
14.6775
19.1765
23.9045
-2.47094
-0.488802
-2.21777
-1.31183
-1.73704
-0.902084
-0.614695
0.0442068
0.638339
0.976269
1.73998
1.36024
2.18844
0.423362
2.33183
-1.91138
-2.2194
-2.70058
-2.20787
-2.04114
-1.28811
-0.707509
0.0564578
0.77369
1.39021
2.10137
2.29427
2.73739
2.17807
1.88879
-0.199208
-0.27259
-0.373509
-0.207618
-0.337925
-0.169338
-0.13122
0.0105534
0.136348
0.186405
0.348947
0.22927
0.37373
0.226878
0.173337
-0.177166
-0.365892
-0.433141
-0.342899
-0.369901
-0.242959
-0.144387
0.0118147
0.158991
0.264327
0.390199
0.364503
0.428924
0.3214
0.153279
-0.0388199
-0.104641
-0.0751594
-0.0203231
-0.0438995
-0.028677
-0.0248846
0.00216301
0.0265983
0.0356025
0.0563835
0.0341976
0.0696619
0.0733068
0.0207797
-0.0442634
-0.107088
-0.0868788
-0.0424814
-0.0448241
-0.0366772
-0.026141
0.000302472
0.0260179
0.0412243
0.054543
0.049763
0.0739206
0.0739876
0.0262375
-0.0249997
-0.0563967
-0.026626
0.0105672
0.0128045
0.00389655
-0.00279188
-0.000421358
0.00268021
0.00102213
-0.00223671
-0.00274823
0.0170721
0.0313916
0.0112246
-0.0265261
-0.0571544
-0.0346235
-0.000456633
0.00792395
0.000943022
-0.00454978
-0.00233048
0.00125752
0.000866529
-0.00146868
0.00245674
0.0201657
0.0309235
0.0129749
-0.0204496
-0.0418683
-0.0208729
0.00944153
0.0188293
0.0104902
0.00158813
-0.00134535
-0.00248327
-0.00618805
-0.0104499
-0.00587184
0.0097028
0.0208169
0.00956513
-0.0208742
-0.0436196
-0.0278024
2.44606e-05
0.0117987
0.00652708
-0.000718585
-0.00283
-0.00292816
-0.00507785
-0.0071349
-0.000851678
0.0134946
0.0218646
0.0101788
-0.0176683
-0.0365809
-0.0230104
0.00193993
0.0138472
0.00955434
0.00182453
-0.0019399
-0.00355038
-0.00630102
-0.00798783
-0.00171724
0.0110266
0.0182145
0.00867665
-0.018536
-0.0394357
-0.0287284
-0.00477028
0.00857795
0.00659206
0.000275104
-0.00274739
-0.00355462
-0.00504107
-0.00501397
0.00224118
0.0145275
0.0200557
0.00934053
SCALARS Mach float 1
LOOKUP_TABLE default
30.0606
30.0609
30.0612
30.0618
30.062
30.0625
30.0625
30.0628
30.0626
30.0628
30.0625
30.0624
30.062
30.0618
30.0615
29.5566
29.5563
29.5558
29.5552
29.5548
29.5544
29.5542
29.5541
29.5543
29.5546
29.555
29.5556
29.5562
29.5567
29.557
30.1192
30.1203
30.1215
30.1236
30.1245
30.1262
30.1264
30.1273
30.1266
30.1268
30.1254
30.1247
30.1228
30.1217
30.1206
29.4813
29.4801
29.4783
29.4768
29.4757
29.4751
29.4748
29.4747
29.4749
29.4753
29.4759
29.477
29.4786
29.4804
29.4816
30.2001
30.2056
30.2114
30.2205
30.2247
30.2317
30.2324
30.2361
30.233
30.2329
30.2264
30.2227
30.2141
30.2087
30.2034
29.3763
29.3703
29.3627
29.3579
29.3551
29.3551
29.3544
29.3554
29.3546
29.3555
29.3556
29.3585
29.3631
29.3704
29.3762
30.272
30.3005
30.326
30.3639
30.3801
30.4073
30.4103
30.4232
30.4117
30.41
30.384
30.3689
30.3325
30.3083
30.2808
29.2327
29.2049
29.1829
29.1813
29.1837
29.1978
29.2013
29.2108
29.202
29.1996
29.1856
29.1842
29.1847
29.2055
29.2313
30.1526
30.3289
30.4239
30.5851
30.6512
30.7562
30.7724
30.8131
30.7753
30.7618
30.6601
30.5957
30.4387
30.3486
30.1786
28.8057
28.7445
28.8135
28.9409
29.0279
29.1619
29.2112
29.2679
29.2144
29.1695
29.0359
28.9547
28.8248
28.7528
28.7962
28.9466
30.0691
30.2874
31.0306
31.3365
31.6754
31.7878
31.872
31.793
31.6849
31.355
31.051
30.3142
30.1053
29.0298
24.3612
27.2091
28.2445
29.3331
29.9274
30.626
30.8726
31.065
30.882
30.6489
29.9517
29.3755
28.2898
27.2973
24.3191
26.0613
28.0281
32.0867
33.2674
34.6176
34.7856
35.3804
35.1925
35.3883
34.8014
34.6437
33.3163
32.1447
28.0474
26.1821
48.7571
44.9313
45.1234
43.7263
43.8709
42.6843
42.9538
42.3002
42.9523
42.662
43.8705
43.6644
45.0714
44.9518
49.6886
55.8586
52.0765
49.6922
47.552
46.7595
45.3724
45.242
44.6413
45.2541
45.3848
46.7943
47.5485
49.7483
52.4461
56.8579
57.6866
54.4918
51.7479
49.7506
48.7849
47.6165
47.3436
46.8889
47.3687
47.6609
48.8573
49.8315
51.9491
55.032
58.6848
43.6005
44.9944
42.9287
42.9456
42.0319
42.0227
41.4733
41.6144
41.4916
42.0326
42.0756
42.9352
43.0575
45.4658
45.3383
25.8638
32.4619
32.671
34.7142
34.7179
35.9824
35.6781
36.2813
35.6592
35.9479
34.6338
34.5579
32.5149
32.9224
27.5338
18.976
24.879
27.7118
29.7618
30.5042
31.5945
31.6964
32.1058
31.6697
31.5588
30.3702
29.5976
27.5824
25.467
20.1556
28.055
29.6364
31.6271
32.242
32.5138
32.8172
32.8634
33.0087
32.8618
32.808
32.4416
32.1389
31.714
30.4128
29.5622
25.1458
26.6879
28.5044
29.4341
29.7729
30.0953
30.1907
30.3221
30.1855
30.0706
29.6751
29.3195
28.6158
27.4415
26.504
27.9426
29.1482
30.6935
31.4484
31.6875
31.7841
31.8434
31.8878
31.8461
31.7634
31.6025
31.3657
30.8878
29.9652
29.323
26.4734
27.5956
29.0232
29.8546
30.133
30.2314
30.2836
30.3245
30.2832
30.1997
30.0377
29.781
29.2448
28.4039
27.785
27.7424
28.7841
30.1271
30.9667
31.2617
31.3251
31.3582
31.3785
31.3564
31.2873
31.1655
30.913
30.3888
29.6128
29.0382
26.9988
27.9707
29.2464
30.1068
30.4367
30.5075
30.5298
30.5444
30.5238
30.461
30.3375
30.0683
29.5316
28.7955
28.2531
27.6367
28.5551
29.784
30.658
31.0191
31.0951
31.1075
31.1133
31.0967
31.0408
30.9189
30.6359
30.0941
29.3855
28.87
27.3001
28.1663
29.3481
30.2283
30.6182
30.7067
30.7129
30.7125
30.6969
30.6452
30.5185
30.2216
29.6768
28.9936
28.5044
27.5986
28.4231
29.568
30.4533
30.8699
30.9719
30.9742
30.9677
30.9527
30.9035
30.7713
30.4615
29.9143
29.2505
28.7826
27.4997
28.2845
29.3924
30.2779
30.7172
30.8334
30.8337
30.8219
30.8067
30.7589
30.6207
30.3001
29.753
29.1084
28.6609
27.6009
28.3527
29.429
30.3135
30.7733
30.9048
30.9059
30.8898
30.8734
30.8248
30.6797
30.3492
29.8026
29.1742
28.7437
