# vtk DataFile Version 3.0
Structured Grid Example
ASCII
DATASET STRUCTURED_GRID
DIMENSIONS 15 30 1
POINTS 450 FLOAT
0.0833327 0.0333334 0
0.0833313 0.1 0
0.0833301 0.166667 0
0.083329 0.233333 0
0.0833281 0.3 0
0.0833274 0.366667 0
0.083327 0.433333 0
0.0833268 0.5 0
0.083327 0.566667 0
0.0833274 0.633333 0
0.0833281 0.7 0
0.083329 0.766667 0
0.0833301 0.833333 0
0.0833313 0.9 0
0.0833327 0.966667 0
0.249998 0.0333334 0
0.249993 0.1 0
0.249989 0.166667 0
0.249986 0.233334 0
0.249983 0.3 0
0.24998 0.366667 0
0.249979 0.433333 0
0.249979 0.5 0
0.249979 0.566667 0
0.24998 0.633333 0
0.249983 0.7 0
0.249986 0.766666 0
0.249989 0.833333 0
0.249993 0.9 0
0.249998 0.966667 0
0.416662 0.0333336 0
0.416654 0.100001 0
0.416646 0.166668 0
0.416639 0.233334 0
0.416633 0.300001 0
0.416628 0.366667 0
0.416626 0.433334 0
0.416625 0.5 0
0.416626 0.566666 0
0.416628 0.633333 0
0.416633 0.699999 0
0.416639 0.766666 0
0.416646 0.833332 0
0.416654 0.899999 0
0.416662 0.966666 0
0.583326 0.033334 0
0.58331 0.100002 0
0.583296 0.166669 0
0.583284 0.233336 0
0.583273 0.300003 0
0.583266 0.366669 0
0.583261 0.433335 0
0.583259 0.5 0
0.583261 0.566665 0
0.583266 0.633331 0
0.583273 0.699997 0
0.583284 0.766664 0
0.583296 0.833331 0
0.58331 0.899998 0
0.583326 0.966666 0
0.749987 0.0333351 0
0.749961 0.100005 0
0.749937 0.166674 0
0.749915 0.233342 0
0.749898 0.300008 0
0.749884 0.366673 0
0.749876 0.433337 0
0.749874 0.5 0
0.749876 0.566663 0
0.749884 0.633327 0
0.749898 0.699992 0
0.749915 0.766658 0
0.749937 0.833326 0
0.749961 0.899995 0
0.749987 0.966665 0
0.916644 0.033338 0
0.916601 0.100013 0
0.91656 0.166686 0
0.916524 0.233356 0
0.916494 0.300021 0
0.916472 0.366683 0
0.916458 0.433342 0
0.916454 0.5 0
0.916458 0.566658 0
0.916472 0.633317 0
0.916494 0.699979 0
0.916524 0.766644 0
0.91656 0.833314 0
0.916601 0.899987 0
0.916644 0.966662 0
1.0833 0.0333461 0
1.08322 0.100036 0
1.08315 0.166719 0
1.08309 0.233394 0
1.08304 0.300058 0
1.08301 0.366712 0
1.08298 0.433358 0
1.08298 0.5 0
1.08298 0.566642 0
1.08301 0.633288 0
1.08304 0.699942 0
1.08309 0.766606 0
1.08315 0.833281 0
1.08322 0.899964 0
1.0833 0.966654 0
1.24994 0.0333682 0
1.24981 0.100098 0
1.2497 0.16681 0
1.24959 0.233497 0
1.24951 0.300156 0
1.24945 0.366788 0
1.24942 0.433399 0
1.2494 0.5 0
1.24942 0.566601 0
1.24945 0.633212 0
1.24951 0.699844 0
1.24959 0.766503 0
1.2497 0.83319 0
1.24981 0.899902 0
1.24994 0.966632 0
1.41656 0.0334298 0
1.41634 0.10027 0
1.41615 0.16706 0
1.41598 0.233778 0
1.41585 0.300419 0
1.41575 0.36699 0
1.41569 0.433509 0
1.41567 0.5 0
1.41569 0.566491 0
1.41575 0.63301 0
1.41585 0.699581 0
1.41598 0.766222 0
1.41615 0.83294 0
1.41634 0.89973 0
1.41656 0.96657 0
1.58313 0.0336075 0
1.58275 0.10076 0
1.58242 0.167751 0
1.58215 0.234537 0
1.58195 0.301115 0
1.58181 0.367517 0
1.58173 0.433791 0
1.58171 0.5 0
1.58173 0.566209 0
1.58181 0.632483 0
1.58195 0.698885 0
1.58215 0.765463 0
1.58242 0.832249 0
1.58275 0.89924 0
1.58313 0.966392 0
1.74959 0.0341677 0
1.74885 0.102235 0
1.74829 0.169714 0
1.74791 0.236575 0
1.74766 0.302905 0
1.74751 0.368829 0
1.74744 0.434482 0
1.74741 0.5 0
1.74744 0.565518 0
1.74751 0.631171 0
1.74766 0.697095 0
1.74791 0.763425 0
1.74829 0.830286 0
1.74885 0.897765 0
1.74959 0.965832 0
1.91555 0.0363295 0
1.91388 0.107253 0
1.91312 0.175401 0
1.91283 0.241837 0
1.91276 0.307169 0
1.91277 0.371793 0
1.9128 0.435995 0
1.91281 0.5 0
1.9128 0.564005 0
1.91277 0.628207 0
1.91276 0.692831 0
1.91283 0.758163 0
1.91312 0.824599 0
1.91388 0.892747 0
1.91555 0.963671 0
2.07838 0.0591504 0
2.07417 0.125973 0
2.07554 0.190391 0
2.07663 0.253364 0
2.07743 0.315525 0
2.07798 0.377223 0
2.07829 0.438667 0
2.0784 0.5 0
2.07829 0.561333 0
2.07798 0.622777 0
2.07743 0.684475 0
2.07663 0.746636 0
2.07554 0.809609 0
2.07417 0.874027 0
2.07838 0.94085 0
2.24384 0.096456 0
2.23911 0.153168 0
2.24152 0.210396 0
2.24318 0.267878 0
2.24431 0.325632 0
2.24503 0.383617 0
2.24544 0.441767 0
2.24557 0.5 0
2.24544 0.558233 0
2.24503 0.616383 0
2.24431 0.674368 0
2.24318 0.732122 0
2.24152 0.789604 0
2.23911 0.846832 0
2.24384 0.903544 0
2.41462 0.118677 0
2.41292 0.170231 0
2.41356 0.223198 0
2.41406 0.277268 0
2.41444 0.332207 0
2.4147 0.387788 0
2.41485 0.44379 0
2.4149 0.5 0
2.41485 0.55621 0
2.4147 0.612212 0
2.41444 0.667793 0
2.41406 0.722732 0
2.41356 0.776802 0
2.41292 0.829769 0
2.41462 0.881323 0
2.58538 0.118677 0
2.58708 0.170231 0
2.58644 0.223198 0
2.58594 0.277268 0
2.58556 0.332207 0
2.5853 0.387788 0
2.58515 0.44379 0
2.5851 0.5 0
2.58515 0.55621 0
2.5853 0.612212 0
2.58556 0.667793 0
2.58594 0.722732 0
2.58644 0.776802 0
2.58708 0.829769 0
2.58538 0.881323 0
2.75616 0.096456 0
2.76089 0.153168 0
2.75848 0.210396 0
2.75682 0.267878 0
2.75569 0.325632 0
2.75497 0.383617 0
2.75456 0.441767 0
2.75443 0.5 0
2.75456 0.558233 0
2.75497 0.616383 0
2.75569 0.674368 0
2.75682 0.732122 0
2.75848 0.789604 0
2.76089 0.846832 0
2.75616 0.903544 0
2.92162 0.0591504 0
2.92583 0.125973 0
2.92446 0.190391 0
2.92337 0.253364 0
2.92257 0.315525 0
2.92202 0.377223 0
2.92171 0.438667 0
2.9216 0.5 0
2.92171 0.561333 0
2.92202 0.622777 0
2.92257 0.684475 0
2.92337 0.746636 0
2.92446 0.809609 0
2.92583 0.874027 0
2.92162 0.94085 0
3.08445 0.0363295 0
3.08612 0.107253 0
3.08688 0.175401 0
3.08717 0.241837 0
3.08724 0.307169 0
3.08723 0.371793 0
3.0872 0.435995 0
3.08719 0.5 0
3.0872 0.564005 0
3.08723 0.628207 0
3.08724 0.692831 0
3.08717 0.758163 0
3.08688 0.824599 0
3.08612 0.892747 0
3.08445 0.963671 0
3.25041 0.0341677 0
3.25115 0.102235 0
3.25171 0.169714 0
3.25209 0.236575 0
3.25234 0.302905 0
3.25249 0.368829 0
3.25256 0.434482 0
3.25259 0.5 0
3.25256 0.565518 0
3.25249 0.631171 0
3.25234 0.697095 0
3.25209 0.763425 0
3.25171 0.830286 0
3.25115 0.897765 0
3.25041 0.965832 0
3.41687 0.0336075 0
3.41725 0.10076 0
3.41758 0.167751 0
3.41785 0.234537 0
3.41805 0.301115 0
3.41819 0.367517 0
3.41827 0.433791 0
3.41829 0.5 0
3.41827 0.566209 0
3.41819 0.632483 0
3.41805 0.698885 0
3.41785 0.765463 0
3.41758 0.832249 0
3.41725 0.89924 0
3.41687 0.966392 0
3.58344 0.0334298 0
3.58366 0.10027 0
3.58385 0.16706 0
3.58402 0.233778 0
3.58415 0.300419 0
3.58425 0.36699 0
3.58431 0.433509 0
3.58433 0.5 0
3.58431 0.566491 0
3.58425 0.63301 0
3.58415 0.699581 0
3.58402 0.766222 0
3.58385 0.83294 0
3.58366 0.89973 0
3.58344 0.96657 0
3.75006 0.0333682 0
3.75019 0.100098 0
3.7503 0.16681 0
3.75041 0.233497 0
3.75049 0.300156 0
3.75055 0.366788 0
3.75058 0.433399 0
3.7506 0.5 0
3.75058 0.566601 0
3.75055 0.633212 0
3.75049 0.699844 0
3.75041 0.766503 0
3.7503 0.83319 0
3.75019 0.899902 0
3.75006 0.966632 0
3.9167 0.0333461 0
3.91678 0.100036 0
3.91685 0.166719 0
3.91691 0.233394 0
3.91696 0.300058 0
3.91699 0.366712 0
3.91702 0.433358 0
3.91702 0.5 0
3.91702 0.566642 0
3.91699 0.633288 0
3.91696 0.699942 0
3.91691 0.766606 0
3.91685 0.833281 0
3.91678 0.899964 0
3.9167 0.966654 0
4.08336 0.033338 0
4.0834 0.100013 0
4.08344 0.166686 0
4.08348 0.233356 0
4.08351 0.300021 0
4.08353 0.366683 0
4.08354 0.433342 0
4.08355 0.5 0
4.08354 0.566658 0
4.08353 0.633317 0
4.08351 0.699979 0
4.08348 0.766644 0
4.08344 0.833314 0
4.0834 0.899987 0
4.08336 0.966662 0
4.25001 0.0333351 0
4.25004 0.100005 0
4.25006 0.166674 0
4.25008 0.233342 0
4.2501 0.300008 0
4.25012 0.366673 0
4.25012 0.433337 0
4.25013 0.5 0
4.25012 0.566663 0
4.25012 0.633327 0
4.2501 0.699992 0
4.25008 0.766658 0
4.25006 0.833326 0
4.25004 0.899995 0
4.25001 0.966665 0
4.41667 0.033334 0
4.41669 0.100002 0
4.4167 0.166669 0
4.41672 0.233336 0
4.41673 0.300003 0
4.41673 0.366669 0
4.41674 0.433335 0
4.41674 0.5 0
4.41674 0.566665 0
4.41673 0.633331 0
4.41673 0.699997 0
4.41672 0.766664 0
4.4167 0.833331 0
4.41669 0.899998 0
4.41667 0.966666 0
4.58334 0.0333336 0
4.58335 0.100001 0
4.58335 0.166668 0
4.58336 0.233334 0
4.58337 0.300001 0
4.58337 0.366667 0
4.58337 0.433334 0
4.58338 0.5 0
4.58337 0.566666 0
4.58337 0.633333 0
4.58337 0.699999 0
4.58336 0.766666 0
4.58335 0.833332 0
4.58335 0.899999 0
4.58334 0.966666 0
4.75 0.0333334 0
4.75001 0.1 0
4.75001 0.166667 0
4.75001 0.233334 0
4.75002 0.3 0
4.75002 0.366667 0
4.75002 0.433333 0
4.75002 0.5 0
4.75002 0.566667 0
4.75002 0.633333 0
4.75002 0.7 0
4.75001 0.766666 0
4.75001 0.833333 0
4.75001 0.9 0
4.75 0.966667 0
4.91667 0.0333334 0
4.91667 0.1 0
4.91667 0.166667 0
4.91667 0.233333 0
4.91667 0.3 0
4.91667 0.366667 0
4.91667 0.433333 0
4.91667 0.5 0
4.91667 0.566667 0
4.91667 0.633333 0
4.91667 0.7 0
4.91667 0.766667 0
4.91667 0.833333 0
4.91667 0.9 0
4.91667 0.966667 0
POINT_DATA 450
SCALARS pressure float 1
LOOKUP_TABLE default
94472.8
94472.8
94472.8
94472.8
94472.8
94472.9
94472.8
94472.9
94472.8
94472.8
94472.8
94472.8
94472.8
94472.8
94472.8
94206.2
94206.2
94206.2
94206.1
94206.2
94206.1
94206.2
94206.1
94206.2
94206.1
94206.2
94206
94206.1
94206.1
94206.1
94535.1
94535.1
94535.1
94535.1
94535
94535
94535
94535
94535
94535
94535
94535
94535
94535
94535
94137.1
94136.9
94137
94136.4
94136.6
94135.9
94136.3
94135.6
94136.2
94135.8
94136.4
94136.2
94136.7
94136.6
94136.9
94613.5
94613.3
94613.2
94612.8
94612.6
94612.2
94612.2
94611.9
94612.1
94612.1
94612.5
94612.7
94613.1
94613.2
94613.4
94051.2
94049.9
94050.1
94047.2
94047.8
94044.6
94046.1
94043.4
94045.9
94044.3
94047.4
94046.7
94049.5
94049.2
94050.5
94718.4
94717.2
94716.4
94713.7
94712.9
94710.2
94710.3
94708.7
94710.2
94710
94712.7
94713.4
94716.1
94716.8
94718
93950.4
93942.5
93942.4
93927.9
93929
93914.7
93919.5
93909.3
93919
93914
93927.8
93926.5
93940.7
93940.7
93948.5
94880.5
94868.8
94863.6
94845.8
94840.6
94825.3
94825.5
94817.1
94825.3
94824.7
94840
94844.7
94862.8
94867.4
94879.4
93907.2
93841.2
93835.3
93754.8
93750.5
93689.4
93699.4
93665.1
93698.3
93687.5
93747.4
93751.2
93830.6
93836
93901.7
95281.5
95140
95101.6
94990.7
94958.4
94887.5
94882.9
94850.9
94882.5
94885.3
94957.2
94986.8
95099.8
95135
95278.8
94573.6
93812.8
93770.6
93352.7
93301.7
93102.7
93095.8
93024.1
93093.4
93099.2
93294.4
93344.7
93757.8
93798.5
94555
96101.5
95460
95050.8
94756
94614.1
94480.5
94442.8
94402.9
94442.3
94474.8
94612.9
94742.8
95050.5
95435.2
96102.3
89134.8
90212.6
89828
90519
90314.6
90746.9
90554.1
90827.8
90553.8
90751.6
90313.8
90531.2
89827
90239.2
89126.8
90209.7
91519.2
91409.9
92232
92070.5
92592.1
92363.3
92702.3
92359.9
92595.1
92059.8
92239.2
91390.8
91532.8
90174
87371.9
88849.4
88627.8
89612.5
89372.4
90029.6
89716.8
90161.1
89710
90026.1
89350.6
89602.4
88587.5
88824.4
87297.4
91766.5
92526.7
92295.3
92847.9
92625.7
93036.3
92780.1
93098.2
92774.5
93039.5
92607.2
92853.4
92259
92530.1
91703
93241.6
92723.8
92592.6
92411.5
92287.6
92289
92170.3
92261
92167.5
92305.8
92278.9
92449.5
92574.9
92795.8
93236.4
96861.8
95830.5
95649.7
95164.1
95023.1
94822.5
94755.5
94721
94762.1
94835.2
95045.1
95189.9
95693.3
95868.9
96961.7
93013.2
93087.7
93062.5
93091.9
93061.3
93083.6
93051
93079.6
93050
93085.1
93058
93093.1
93056.2
93085.2
93004.5
95122.3
95040.4
95000.3
94906.8
94870.4
94810.6
94797.5
94778.1
94799.9
94815
94877.4
94914.7
95010.8
95050.4
95135.2
93518.7
93522.3
93520.6
93523.6
93520
93523.5
93518.8
93523.4
93518.6
93523.6
93519.5
93523.6
93519.8
93522
93518.4
94620.5
94613.4
94606.5
94592.7
94585.7
94574.2
94572.1
94567.5
94572.7
94575.3
94587.3
94594.4
94608.5
94615.3
94622.4
93782.4
93782.5
93782.6
93782.5
93782.2
93782.2
93781.9
93782.2
93781.9
93782.4
93782.3
93782.8
93782.9
93783.1
93783
94408.4
94407.4
94406.2
94403.9
94402.7
94400.5
94400.2
94399.3
94400.3
94400.7
94402.9
94404.1
94406.3
94407.5
94408.4
93924
93924
93924.1
93924
93924
93923.8
93923.9
93923.8
93924
93924
93924.2
93924.3
93924.5
93924.5
93924.6
94304.5
94304.2
94303.9
94303.3
94303
94302.5
94302.4
94302.1
94302.4
94302.5
94302.9
94303.2
94303.8
94304
94304.3
93995.4
93995.4
93995.5
93995.5
93995.5
93995.4
93995.5
93995.5
93995.6
93995.6
93995.7
93995.7
93995.8
93995.8
93995.9
94256.1
94256
94255.9
94255.7
94255.6
94255.4
94255.4
94255.3
94255.4
94255.4
94255.6
94255.7
94255.8
94255.9
94255.9
94024.8
94025
94025.3
94025.4
94025.6
94025.7
94025.8
94025.8
94025.9
94025.9
94025.9
94025.8
94025.7
94025.6
94025.5
SCALARS density float 1
LOOKUP_TABLE default
1.21459
1.21459
1.21459
1.21459
1.21459
1.21459
1.21459
1.21459
1.21459
1.21459
1.21459
1.21459
1.21459
1.21459
1.21459
1.21212
1.21212
1.21212
1.21212
1.21213
1.21213
1.21213
1.21213
1.21213
1.21213
1.21213
1.21213
1.21212
1.21212
1.21212
1.21514
1.21514
1.21514
1.21515
1.21515
1.21515
1.21515
1.21515
1.21515
1.21515
1.21515
1.21515
1.21515
1.21514
1.21514
1.21149
1.21149
1.21149
1.21149
1.21149
1.21148
1.21149
1.21148
1.21149
1.21148
1.21149
1.21149
1.21149
1.21149
1.21149
1.21586
1.21586
1.21586
1.21586
1.21586
1.21585
1.21585
1.21585
1.21585
1.21585
1.21586
1.21586
1.21586
1.21586
1.21586
1.21071
1.2107
1.21071
1.21068
1.21069
1.21066
1.21068
1.21065
1.21068
1.21066
1.21069
1.21068
1.2107
1.2107
1.21071
1.21681
1.2168
1.2168
1.21677
1.21677
1.21674
1.21674
1.21673
1.21674
1.21674
1.21676
1.21677
1.21679
1.2168
1.21681
1.20984
1.20978
1.20978
1.20965
1.20966
1.20953
1.20958
1.20948
1.20957
1.20952
1.20965
1.20963
1.20976
1.20976
1.20983
1.21817
1.21807
1.21804
1.21789
1.21785
1.21771
1.21772
1.21764
1.21771
1.21771
1.21785
1.21788
1.21803
1.21806
1.21816
1.2098
1.2092
1.20909
1.20832
1.20826
1.20769
1.20778
1.20746
1.20777
1.20767
1.20823
1.20829
1.20905
1.20915
1.20976
1.22087
1.2198
1.21963
1.21877
1.21856
1.21796
1.21794
1.21766
1.21794
1.21794
1.21855
1.21874
1.21962
1.21975
1.22086
1.2187
1.21073
1.20983
1.20555
1.20487
1.20285
1.20272
1.20201
1.2027
1.20281
1.20479
1.20546
1.2097
1.2106
1.21852
1.22568
1.22089
1.21786
1.21579
1.21475
1.21373
1.21346
1.21314
1.21346
1.21369
1.21475
1.21569
1.21788
1.22063
1.22568
1.16443
1.17507
1.17118
1.17779
1.17588
1.18
1.17819
1.18078
1.17819
1.18005
1.17588
1.1779
1.17116
1.17545
1.16499
1.17547
1.18818
1.18667
1.19424
1.19259
1.19743
1.19525
1.19841
1.19522
1.19746
1.19249
1.1943
1.1865
1.18853
1.17567
1.14719
1.16161
1.15949
1.16875
1.16651
1.17272
1.16983
1.17398
1.16977
1.17268
1.1663
1.16863
1.15914
1.16162
1.14701
1.18884
1.19645
1.19459
1.19968
1.19773
1.20148
1.19919
1.20207
1.19914
1.20151
1.19755
1.19971
1.19428
1.19673
1.18918
1.20182
1.19785
1.19694
1.19507
1.19393
1.19387
1.19285
1.19363
1.19283
1.19403
1.19385
1.19538
1.1968
1.19895
1.20309
1.23291
1.22537
1.22461
1.22043
1.21921
1.21744
1.2169
1.21659
1.21697
1.21756
1.21938
1.22059
1.22504
1.22621
1.23505
1.19883
1.20036
1.20087
1.20136
1.20111
1.20133
1.20108
1.20135
1.20107
1.20134
1.20104
1.2013
1.20089
1.20087
1.19984
1.2183
1.21826
1.21863
1.21807
1.21778
1.21725
1.21717
1.21701
1.2172
1.21728
1.21779
1.21807
1.21883
1.21892
1.21948
1.20373
1.20436
1.20502
1.20537
1.20539
1.20543
1.20542
1.20548
1.20542
1.20542
1.20533
1.20531
1.20515
1.20494
1.20473
1.21389
1.21438
1.21497
1.21519
1.2152
1.2151
1.21511
1.21508
1.21511
1.21509
1.21515
1.21515
1.21515
1.21499
1.21488
1.20626
1.20676
1.20738
1.20775
1.20784
1.20785
1.20786
1.20787
1.20786
1.20782
1.20777
1.20771
1.20757
1.20736
1.20721
1.21202
1.21248
1.21306
1.21342
1.21353
1.21352
1.21352
1.21352
1.21352
1.21349
1.21346
1.21339
1.21327
1.21308
1.21294
1.20765
1.20809
1.20866
1.20905
1.20919
1.20921
1.20921
1.20921
1.2092
1.20917
1.20912
1.20904
1.20889
1.2087
1.20856
1.21106
1.21147
1.21201
1.2124
1.21255
1.21256
1.21256
1.21256
1.21255
1.21252
1.21247
1.21239
1.21224
1.21206
1.21194
1.20852
1.20891
1.20945
1.20985
1.21002
1.21005
1.21005
1.21004
1.21003
1.21
1.20995
1.20986
1.2097
1.20952
1.2094
1.21028
1.21064
1.21115
1.21154
1.21172
1.21175
1.21175
1.21174
1.21173
1.2117
1.21165
1.21156
1.21141
1.21124
1.21112
1.20965
1.21
1.21051
1.21091
1.2111
1.21114
1.21113
1.21112
1.21111
1.21108
1.21103
1.21093
1.21078
1.21061
1.21049
SCALARS u-velocity float 1
LOOKUP_TABLE default
99.5969
99.5976
99.5984
99.5998
99.6005
99.6017
99.6019
99.6026
99.6022
99.6022
99.6013
99.6008
99.5997
99.599
99.5984
98.7384
98.7381
98.7377
98.7374
98.7371
98.737
98.7369
98.737
98.7371
98.7373
98.7375
98.7379
98.7383
98.7387
98.7391
99.6994
99.7014
99.7036
99.7072
99.7089
99.7119
99.7122
99.7139
99.7127
99.7128
99.7103
99.7089
99.7056
99.7037
99.7018
98.6091
98.6069
98.6039
98.6011
98.5992
98.598
98.5974
98.5973
98.5976
98.5983
98.5995
98.6015
98.6043
98.6073
98.6094
99.8408
99.8497
99.8589
99.8734
99.8799
99.891
99.892
99.8979
99.893
99.893
99.8827
99.877
99.8633
99.8548
99.8463
98.4281
98.4176
98.4044
98.3952
98.3899
98.3889
98.3875
98.3887
98.3877
98.3895
98.3906
98.3961
98.4049
98.4177
98.4278
99.9686
100.015
100.057
100.118
100.144
100.188
100.192
100.213
100.194
100.192
100.15
100.126
100.067
100.028
99.9831
98.1786
98.1309
98.0931
98.0886
98.0919
98.114
98.1197
98.1347
98.1209
98.1169
98.0951
98.0933
98.096
98.1317
98.176
99.7853
100.075
100.231
100.494
100.601
100.772
100.798
100.864
100.803
100.781
100.616
100.511
100.255
100.108
99.8281
97.4461
97.337
97.453
97.6626
97.8102
98.032
98.1164
98.2093
98.1219
98.0449
97.8236
97.6859
97.4721
97.3508
97.4296
97.8102
99.6653
100.014
101.225
101.723
102.272
102.458
102.593
102.467
102.288
101.754
101.259
100.059
99.725
97.9499
89.6069
94.605
96.4239
98.2278
99.2466
100.394
100.81
101.122
100.825
100.432
99.2877
98.3003
96.5013
94.7583
89.5282
90.0028
94.2067
101.737
104.029
106.533
106.986
108.029
107.778
108.046
107.018
106.588
104.122
101.866
94.2759
90.2835
123.813
120.3
120.883
119.447
119.759
118.284
118.684
117.82
118.685
118.258
119.765
119.375
120.831
120.353
124.985
134.83
130.577
127.565
124.975
123.931
122.166
121.981
121.206
121.998
122.185
123.977
124.975
127.636
131.038
136
137
133.26
130.023
127.581
126.38
124.925
124.551
123.996
124.582
124.978
126.468
127.674
130.263
133.893
138.146
117.888
120.317
118.2
118.468
117.438
117.545
116.817
117.061
116.839
117.546
117.483
118.419
118.336
120.852
120.137
89.3305
101.722
102.68
106.318
106.58
108.686
108.3
109.248
108.266
108.616
106.435
106.029
102.394
102.32
92.1831
79.2922
90.7301
95.7016
99.1548
100.365
102.138
102.298
102.955
102.255
102.08
100.147
98.8838
95.4811
91.7899
81.7114
96.14
98.7949
102.031
103.027
103.461
103.956
104.03
104.265
104.027
103.94
103.345
102.862
102.168
100.071
98.6669
91.1811
93.9154
97.0402
98.597
99.1581
99.6881
99.8437
100.059
99.8353
99.6478
98.9965
98.4069
97.2285
95.2218
93.5918
95.9991
98.0355
100.585
101.807
102.191
102.346
102.44
102.512
102.445
102.314
102.055
101.675
100.9
99.388
98.3215
93.5186
95.4682
97.8922
99.2754
99.7342
99.8952
99.9802
100.047
99.9796
99.8433
99.5779
99.1542
98.2621
96.8447
95.7881
95.671
97.4403
99.6742
101.045
101.523
101.625
101.678
101.711
101.675
101.564
101.368
100.959
100.102
98.8208
97.8608
94.4238
96.0989
98.2535
99.6803
100.222
100.338
100.375
100.398
100.365
100.262
100.06
99.6172
98.7273
97.4934
96.5739
95.4951
97.0602
99.1151
100.551
101.139
101.262
101.283
101.292
101.266
101.175
100.977
100.515
99.6252
98.4492
97.5844
94.94
96.4266
98.4181
99.8754
100.515
100.66
100.671
100.67
100.645
100.56
100.353
99.8646
98.9629
97.8204
96.9939
95.4292
96.8366
98.7572
100.217
100.897
101.064
101.068
101.058
101.033
100.953
100.738
100.231
99.3288
98.2238
97.4371
95.2896
96.6327
98.4972
99.9622
100.682
100.872
100.873
100.854
100.829
100.751
100.525
99.9986
99.0942
98.018
97.2637
95.4193
96.7031
98.5116
99.9732
100.725
100.939
100.941
100.915
100.889
100.81
100.573
100.032
99.1296
98.0821
97.3579
SCALARS v-velocity float 1
LOOKUP_TABLE default
-0.000387027
-0.000779176
-0.00126375
-0.00127195
-0.00128217
-0.000965566
-0.000649217
-0.000217513
0.000224265
0.000565254
0.000924647
0.000971916
0.00103551
0.000636987
0.000337609
0.000617806
0.00108775
0.00189568
0.0018229
0.0019225
0.0014283
0.00102437
0.000407452
-0.000228272
-0.000679649
-0.00125501
-0.00126392
-0.00147143
-0.000823446
-0.000526321
-0.000926451
-0.00216203
-0.00313444
-0.00318814
-0.00292252
-0.00213544
-0.00120702
-0.000122189
0.000972276
0.00190212
0.00270541
0.00299052
0.00296861
0.0020546
0.000883457
0.00309892
0.00561274
0.00935933
0.00898621
0.00912954
0.00666623
0.00442172
0.00127452
-0.00193651
-0.0043158
-0.00702485
-0.00720455
-0.00798557
-0.00474939
-0.00279249
-0.0026912
-0.00643834
-0.00819193
-0.00775097
-0.00626418
-0.00433225
-0.00213365
-6.54038e-06
0.00215313
0.00427204
0.00616594
0.00757023
0.00794538
0.00625251
0.00258268
0.0146547
0.0267157
0.0419915
0.0403633
0.0393737
0.0286485
0.017541
0.00336312
-0.0110176
-0.0223965
-0.0337399
-0.0354877
-0.0380902
-0.024198
-0.0137044
-0.00600561
-0.0108779
-0.00640674
-0.00178907
0.00399515
0.00459228
0.00432719
0.000750228
-0.00263316
-0.003445
-0.00310561
0.0020381
0.00594979
0.010329
0.00547566
0.0734698
0.119579
0.175422
0.172048
0.159196
0.117552
0.0663399
0.00824401
-0.0505717
-0.101981
-0.145116
-0.159442
-0.164637
-0.112007
-0.0701006
0.0152869
0.095017
0.16748
0.183776
0.189811
0.145337
0.0863155
0.00478267
-0.0754477
-0.13742
-0.182604
-0.179746
-0.167093
-0.0970898
-0.0193221
0.377196
0.509704
0.694345
0.733609
0.604184
0.46959
0.239411
0.0182718
-0.205833
-0.434374
-0.572799
-0.704086
-0.66849
-0.487286
-0.360921
1.11461
1.72056
2.02147
1.91486
1.67679
1.20081
0.644836
0.0211981
-0.594622
-1.16254
-1.63577
-1.88798
-1.99807
-1.71752
-1.14553
-0.314357
3.35833
2.50766
3.06976
2.02476
1.69654
0.76515
0.0353948
-0.705494
-1.62876
-1.97178
-3.01192
-2.47869
-3.33729
0.352149
23.1016
19.952
15.9941
12.922
9.0623
6.13695
2.9565
0.0665566
-2.79577
-6.00095
-8.88077
-12.785
-15.769
-19.7791
-22.8728
25.1274
16.065
13.1678
8.69135
6.62479
3.84375
2.04769
0.0752437
-1.90661
-3.69023
-6.48413
-8.52184
-13.0003
-15.8667
-25.2967
11.4079
7.10022
6.75482
4.15967
3.728
2.00338
1.21562
0.06855
-1.13131
-1.87213
-3.67128
-4.03996
-6.75315
-7.06402
-11.6397
-8.23286
-8.56828
-4.69691
-4.81252
-2.38995
-2.10675
-0.685425
0.126031
0.864568
2.36084
2.57345
5.07814
4.8995
8.8566
8.46354
-20.86
-18.1312
-12.1372
-10.0841
-6.22908
-4.40828
-1.84623
0.155808
2.06909
4.74321
6.4851
10.4987
12.5121
18.7965
21.5354
-23.3208
-18.4083
-14.4349
-10.8756
-7.8481
-4.97694
-2.41912
0.188204
2.61563
5.37671
8.0474
11.3631
14.6749
19.1746
23.9036
-2.47017
-0.486796
-2.21471
-1.30844
-1.73376
-0.899571
-0.613299
0.0442221
0.636976
0.973786
1.73673
1.35687
2.18539
0.421364
2.33106
-1.91083
-2.21796
-2.69827
-2.20529
-2.03857
-1.28615
-0.706393
0.0564793
0.772619
1.38829
2.09883
2.29173
2.7351
2.17663
1.88823
-0.198973
-0.272078
-0.37257
-0.206667
-0.33688
-0.168594
-0.130755
0.0105793
0.135936
0.185709
0.347945
0.228353
0.372813
0.226378
0.173104
-0.177416
-0.366645
-0.434091
-0.344126
-0.370921
-0.243844
-0.144802
0.0118435
0.159464
0.265265
0.391267
0.365768
0.429902
0.322171
0.153534
-0.0395742
-0.106702
-0.0781019
-0.0238273
-0.0471137
-0.0312814
-0.0262397
0.00219277
0.0280125
0.0382623
0.0596478
0.0377445
0.0726388
0.0753928
0.021544
-0.0454126
-0.110147
-0.0913716
-0.0477279
-0.0497384
-0.0405958
-0.0282229
0.000331767
0.0281578
0.045198
0.0595074
0.0550536
0.0784518
0.077076
0.0273992
-0.0263531
-0.0599467
-0.0319205
0.00445148
0.00701078
-0.00068308
-0.00525071
-0.000393888
0.00519339
0.00565361
0.00360461
0.00341037
0.0224056
0.0349723
0.0125911
-0.027841
-0.0605644
-0.0397679
-0.00634736
0.00229627
-0.00347411
-0.00693881
-0.00230595
0.00369487
0.00532982
0.0042013
0.00838591
0.0253454
0.034361
0.0143016
-0.0215387
-0.0446624
-0.0251332
0.00460752
0.0141741
0.00686276
-0.00038703
-0.00132464
-0.000467458
-0.00252196
-0.00575934
-0.00100627
0.0139912
0.0236316
0.010663
-0.0215901
-0.0454323
-0.0306018
-0.00311383
0.00874714
0.00417221
-0.0020106
-0.00281368
-0.0016043
-0.00269299
-0.00405646
0.00230954
0.0163128
0.0236895
0.0108996
-0.0180564
-0.0375485
-0.0245287
0.0002695
0.0122009
0.00830286
0.0011304
-0.00192791
-0.0028329
-0.00502772
-0.00632222
-3.1542e-05
0.0125555
0.0191869
0.00906645
-0.0186352
-0.0396735
-0.029113
-0.0051707
0.0081708
0.00629523
0.000106303
-0.00274114
-0.00337365
-0.00473289
-0.00459682
0.0026486
0.0149151
0.0202928
0.00943891
SCALARS Mach float 1
LOOKUP_TABLE default
30.06
30.0604
30.0609
30.0617
30.0622
30.0629
30.063
30.0634
30.0632
30.0632
30.0627
30.0624
30.0617
30.0613
30.0609
29.5557
29.5556
29.5554
29.5551
29.555
29.5549
29.5549
29.5549
29.555
29.5551
29.5553
29.5555
29.5557
29.556
29.5561
30.1188
30.1201
30.1214
30.1236
30.1246
30.1265
30.1267
30.1277
30.1269
30.127
30.1255
30.1246
30.1226
30.1214
30.1203
29.4815
29.4802
29.4784
29.4768
29.4756
29.475
29.4746
29.4746
29.4747
29.4752
29.4759
29.477
29.4787
29.4805
29.4817
30.2008
30.2062
30.2117
30.2205
30.2245
30.2313
30.2318
30.2354
30.2324
30.2324
30.2262
30.2228
30.2145
30.2093
30.2041
29.3774
29.3712
29.3633
29.358
29.3548
29.3543
29.3535
29.3543
29.3536
29.3547
29.3552
29.3586
29.3636
29.3713
29.3772
30.2732
30.3015
30.3266
30.364
30.3797
30.4065
30.4091
30.4219
30.4105
30.4091
30.3837
30.3691
30.3331
30.3093
30.282
29.2338
29.2058
29.1834
29.1814
29.1833
29.1971
29.2003
29.2097
29.2011
29.1988
29.1853
29.1843
29.1852
29.2064
29.2324
30.1533
30.3295
30.4243
30.5851
30.651
30.7557
30.7717
30.8123
30.7747
30.7613
30.6599
30.5958
30.4391
30.3492
30.1792
28.8058
28.7446
28.8135
28.9408
29.0278
29.1618
29.211
29.2677
29.2143
29.1694
29.0358
28.9547
28.8248
28.7529
28.7963
28.9462
30.0687
30.2871
31.0305
31.3366
31.6756
31.7881
31.8724
31.7934
31.6851
31.3551
31.0509
30.314
30.105
29.0294
24.3605
27.2085
28.2441
29.3331
29.9276
30.6266
30.8734
31.0659
30.8828
30.6494
29.952
29.3754
28.2894
27.2967
24.3185
26.0604
28.0274
32.0862
33.2673
34.6179
34.7862
35.3813
35.1935
35.3892
34.8021
34.644
33.3162
32.1442
28.0467
26.1813
48.756
44.9306
45.123
43.7262
43.8711
42.6847
42.9544
42.3009
42.9529
42.6624
43.8707
43.6643
45.071
44.951
49.6875
55.858
52.0761
49.6919
47.552
46.7596
45.3727
45.2423
44.6417
45.2545
45.3851
46.7945
47.5484
49.7481
52.4457
56.8574
57.6861
54.4914
51.7478
49.7507
48.7852
47.6169
47.3442
46.8895
47.3693
47.6614
48.8576
49.8316
51.949
55.0316
58.6843
43.5998
44.9938
42.9285
42.9457
42.0323
42.0233
41.474
41.6152
41.4924
42.0332
42.0759
42.9353
43.0573
45.4653
45.3376
25.8633
32.4614
32.6707
34.7142
34.7181
35.9829
35.6786
36.282
35.6597
35.9483
34.634
34.5578
32.5146
32.922
27.5333
18.9761
24.879
27.7118
29.7618
30.5041
31.5944
31.6963
32.1057
31.6696
31.5587
30.3702
29.5976
27.5824
25.467
20.1557
28.0558
29.6369
31.6275
32.242
32.5135
32.8166
32.8626
33.0079
32.861
32.8074
32.4413
32.1389
31.7144
30.4135
29.563
25.1469
26.6888
28.5049
29.4342
29.7725
30.0944
30.1895
30.3209
30.1843
30.0697
29.6747
29.3196
28.6164
27.4424
26.5051
27.9439
29.1494
30.6942
31.4485
31.6871
31.783
31.8419
31.8862
31.8447
31.7624
31.602
31.3659
30.8886
29.9664
29.3244
26.4746
27.5965
29.0238
29.8547
30.1325
30.2305
30.2823
30.3232
30.282
30.1988
30.0373
29.7811
29.2454
28.4049
27.7862
27.7432
28.7848
30.1275
30.9668
31.2614
31.3245
31.3573
31.3775
31.3556
31.2867
31.1652
30.9131
30.3892
29.6135
29.0391
26.999
27.971
29.2465
30.1069
30.4366
30.5073
30.5296
30.5441
30.5236
30.4609
30.3375
30.0684
29.5317
28.7957
28.2534
27.6364
28.5549
29.7838
30.658
31.0192
31.0953
31.1078
31.1137
31.0971
31.0411
30.919
30.6359
30.0939
29.3853
28.8696
27.2993
28.1657
29.3477
30.2282
30.6185
30.7073
30.7137
30.7134
30.6977
30.6458
30.5187
30.2215
29.6764
28.993
28.5036
27.5977
28.4223
29.5675
30.4532
30.8702
30.9726
30.9751
30.9687
30.9536
30.9042
30.7716
30.4614
29.9138
29.2497
28.7816
27.4989
28.2838
29.392
30.2778
30.7175
30.834
30.8345
30.8228
30.8075
30.7595
30.621
30.3
29.7525
29.1077
28.66
27.6005
28.3523
29.4288
30.3135
30.7734
30.9051
30.9062
30.8902
30.8737
30.8251
30.6798
30.3492
29.8024
29.1739
28.7433
