# vtk DataFile Version 3.0
Structured Grid Example
ASCII
DATASET STRUCTURED_GRID
DIMENSIONS 15 30 1
POINTS 450 FLOAT
0.0833327 0.0333334 0
0.0833313 0.1 0
0.0833301 0.166667 0
0.083329 0.233333 0
0.0833281 0.3 0
0.0833274 0.366667 0
0.083327 0.433333 0
0.0833268 0.5 0
0.083327 0.566667 0
0.0833274 0.633333 0
0.0833281 0.7 0
0.083329 0.766667 0
0.0833301 0.833333 0
0.0833313 0.9 0
0.0833327 0.966667 0
0.249998 0.0333334 0
0.249993 0.1 0
0.249989 0.166667 0
0.249986 0.233334 0
0.249983 0.3 0
0.24998 0.366667 0
0.249979 0.433333 0
0.249979 0.5 0
0.249979 0.566667 0
0.24998 0.633333 0
0.249983 0.7 0
0.249986 0.766666 0
0.249989 0.833333 0
0.249993 0.9 0
0.249998 0.966667 0
0.416662 0.0333336 0
0.416654 0.100001 0
0.416646 0.166668 0
0.416639 0.233334 0
0.416633 0.300001 0
0.416628 0.366667 0
0.416626 0.433334 0
0.416625 0.5 0
0.416626 0.566666 0
0.416628 0.633333 0
0.416633 0.699999 0
0.416639 0.766666 0
0.416646 0.833332 0
0.416654 0.899999 0
0.416662 0.966666 0
0.583326 0.033334 0
0.58331 0.100002 0
0.583296 0.166669 0
0.583284 0.233336 0
0.583273 0.300003 0
0.583266 0.366669 0
0.583261 0.433335 0
0.583259 0.5 0
0.583261 0.566665 0
0.583266 0.633331 0
0.583273 0.699997 0
0.583284 0.766664 0
0.583296 0.833331 0
0.58331 0.899998 0
0.583326 0.966666 0
0.749987 0.0333351 0
0.749961 0.100005 0
0.749937 0.166674 0
0.749915 0.233342 0
0.749898 0.300008 0
0.749884 0.366673 0
0.749876 0.433337 0
0.749874 0.5 0
0.749876 0.566663 0
0.749884 0.633327 0
0.749898 0.699992 0
0.749915 0.766658 0
0.749937 0.833326 0
0.749961 0.899995 0
0.749987 0.966665 0
0.916644 0.033338 0
0.916601 0.100013 0
0.91656 0.166686 0
0.916524 0.233356 0
0.916494 0.300021 0
0.916472 0.366683 0
0.916458 0.433342 0
0.916454 0.5 0
0.916458 0.566658 0
0.916472 0.633317 0
0.916494 0.699979 0
0.916524 0.766644 0
0.91656 0.833314 0
0.916601 0.899987 0
0.916644 0.966662 0
1.0833 0.0333461 0
1.08322 0.100036 0
1.08315 0.166719 0
1.08309 0.233394 0
1.08304 0.300058 0
1.08301 0.366712 0
1.08298 0.433358 0
1.08298 0.5 0
1.08298 0.566642 0
1.08301 0.633288 0
1.08304 0.699942 0
1.08309 0.766606 0
1.08315 0.833281 0
1.08322 0.899964 0
1.0833 0.966654 0
1.24994 0.0333682 0
1.24981 0.100098 0
1.2497 0.16681 0
1.24959 0.233497 0
1.24951 0.300156 0
1.24945 0.366788 0
1.24942 0.433399 0
1.2494 0.5 0
1.24942 0.566601 0
1.24945 0.633212 0
1.24951 0.699844 0
1.24959 0.766503 0
1.2497 0.83319 0
1.24981 0.899902 0
1.24994 0.966632 0
1.41656 0.0334298 0
1.41634 0.10027 0
1.41615 0.16706 0
1.41598 0.233778 0
1.41585 0.300419 0
1.41575 0.36699 0
1.41569 0.433509 0
1.41567 0.5 0
1.41569 0.566491 0
1.41575 0.63301 0
1.41585 0.699581 0
1.41598 0.766222 0
1.41615 0.83294 0
1.41634 0.89973 0
1.41656 0.96657 0
1.58313 0.0336075 0
1.58275 0.10076 0
1.58242 0.167751 0
1.58215 0.234537 0
1.58195 0.301115 0
1.58181 0.367517 0
1.58173 0.433791 0
1.58171 0.5 0
1.58173 0.566209 0
1.58181 0.632483 0
1.58195 0.698885 0
1.58215 0.765463 0
1.58242 0.832249 0
1.58275 0.89924 0
1.58313 0.966392 0
1.74959 0.0341677 0
1.74885 0.102235 0
1.74829 0.169714 0
1.74791 0.236575 0
1.74766 0.302905 0
1.74751 0.368829 0
1.74744 0.434482 0
1.74741 0.5 0
1.74744 0.565518 0
1.74751 0.631171 0
1.74766 0.697095 0
1.74791 0.763425 0
1.74829 0.830286 0
1.74885 0.897765 0
1.74959 0.965832 0
1.91555 0.0363295 0
1.91388 0.107253 0
1.91312 0.175401 0
1.91283 0.241837 0
1.91276 0.307169 0
1.91277 0.371793 0
1.9128 0.435995 0
1.91281 0.5 0
1.9128 0.564005 0
1.91277 0.628207 0
1.91276 0.692831 0
1.91283 0.758163 0
1.91312 0.824599 0
1.91388 0.892747 0
1.91555 0.963671 0
2.07838 0.0591504 0
2.07417 0.125973 0
2.07554 0.190391 0
2.07663 0.253364 0
2.07743 0.315525 0
2.07798 0.377223 0
2.07829 0.438667 0
2.0784 0.5 0
2.07829 0.561333 0
2.07798 0.622777 0
2.07743 0.684475 0
2.07663 0.746636 0
2.07554 0.809609 0
2.07417 0.874027 0
2.07838 0.94085 0
2.24384 0.096456 0
2.23911 0.153168 0
2.24152 0.210396 0
2.24318 0.267878 0
2.24431 0.325632 0
2.24503 0.383617 0
2.24544 0.441767 0
2.24557 0.5 0
2.24544 0.558233 0
2.24503 0.616383 0
2.24431 0.674368 0
2.24318 0.732122 0
2.24152 0.789604 0
2.23911 0.846832 0
2.24384 0.903544 0
2.41462 0.118677 0
2.41292 0.170231 0
2.41356 0.223198 0
2.41406 0.277268 0
2.41444 0.332207 0
2.4147 0.387788 0
2.41485 0.44379 0
2.4149 0.5 0
2.41485 0.55621 0
2.4147 0.612212 0
2.41444 0.667793 0
2.41406 0.722732 0
2.41356 0.776802 0
2.41292 0.829769 0
2.41462 0.881323 0
2.58538 0.118677 0
2.58708 0.170231 0
2.58644 0.223198 0
2.58594 0.277268 0
2.58556 0.332207 0
2.5853 0.387788 0
2.58515 0.44379 0
2.5851 0.5 0
2.58515 0.55621 0
2.5853 0.612212 0
2.58556 0.667793 0
2.58594 0.722732 0
2.58644 0.776802 0
2.58708 0.829769 0
2.58538 0.881323 0
2.75616 0.096456 0
2.76089 0.153168 0
2.75848 0.210396 0
2.75682 0.267878 0
2.75569 0.325632 0
2.75497 0.383617 0
2.75456 0.441767 0
2.75443 0.5 0
2.75456 0.558233 0
2.75497 0.616383 0
2.75569 0.674368 0
2.75682 0.732122 0
2.75848 0.789604 0
2.76089 0.846832 0
2.75616 0.903544 0
2.92162 0.0591504 0
2.92583 0.125973 0
2.92446 0.190391 0
2.92337 0.253364 0
2.92257 0.315525 0
2.92202 0.377223 0
2.92171 0.438667 0
2.9216 0.5 0
2.92171 0.561333 0
2.92202 0.622777 0
2.92257 0.684475 0
2.92337 0.746636 0
2.92446 0.809609 0
2.92583 0.874027 0
2.92162 0.94085 0
3.08445 0.0363295 0
3.08612 0.107253 0
3.08688 0.175401 0
3.08717 0.241837 0
3.08724 0.307169 0
3.08723 0.371793 0
3.0872 0.435995 0
3.08719 0.5 0
3.0872 0.564005 0
3.08723 0.628207 0
3.08724 0.692831 0
3.08717 0.758163 0
3.08688 0.824599 0
3.08612 0.892747 0
3.08445 0.963671 0
3.25041 0.0341677 0
3.25115 0.102235 0
3.25171 0.169714 0
3.25209 0.236575 0
3.25234 0.302905 0
3.25249 0.368829 0
3.25256 0.434482 0
3.25259 0.5 0
3.25256 0.565518 0
3.25249 0.631171 0
3.25234 0.697095 0
3.25209 0.763425 0
3.25171 0.830286 0
3.25115 0.897765 0
3.25041 0.965832 0
3.41687 0.0336075 0
3.41725 0.10076 0
3.41758 0.167751 0
3.41785 0.234537 0
3.41805 0.301115 0
3.41819 0.367517 0
3.41827 0.433791 0
3.41829 0.5 0
3.41827 0.566209 0
3.41819 0.632483 0
3.41805 0.698885 0
3.41785 0.765463 0
3.41758 0.832249 0
3.41725 0.89924 0
3.41687 0.966392 0
3.58344 0.0334298 0
3.58366 0.10027 0
3.58385 0.16706 0
3.58402 0.233778 0
3.58415 0.300419 0
3.58425 0.36699 0
3.58431 0.433509 0
3.58433 0.5 0
3.58431 0.566491 0
3.58425 0.63301 0
3.58415 0.699581 0
3.58402 0.766222 0
3.58385 0.83294 0
3.58366 0.89973 0
3.58344 0.96657 0
3.75006 0.0333682 0
3.75019 0.100098 0
3.7503 0.16681 0
3.75041 0.233497 0
3.75049 0.300156 0
3.75055 0.366788 0
3.75058 0.433399 0
3.7506 0.5 0
3.75058 0.566601 0
3.75055 0.633212 0
3.75049 0.699844 0
3.75041 0.766503 0
3.7503 0.83319 0
3.75019 0.899902 0
3.75006 0.966632 0
3.9167 0.0333461 0
3.91678 0.100036 0
3.91685 0.166719 0
3.91691 0.233394 0
3.91696 0.300058 0
3.91699 0.366712 0
3.91702 0.433358 0
3.91702 0.5 0
3.91702 0.566642 0
3.91699 0.633288 0
3.91696 0.699942 0
3.91691 0.766606 0
3.91685 0.833281 0
3.91678 0.899964 0
3.9167 0.966654 0
4.08336 0.033338 0
4.0834 0.100013 0
4.08344 0.166686 0
4.08348 0.233356 0
4.08351 0.300021 0
4.08353 0.366683 0
4.08354 0.433342 0
4.08355 0.5 0
4.08354 0.566658 0
4.08353 0.633317 0
4.08351 0.699979 0
4.08348 0.766644 0
4.08344 0.833314 0
4.0834 0.899987 0
4.08336 0.966662 0
4.25001 0.0333351 0
4.25004 0.100005 0
4.25006 0.166674 0
4.25008 0.233342 0
4.2501 0.300008 0
4.25012 0.366673 0
4.25012 0.433337 0
4.25013 0.5 0
4.25012 0.566663 0
4.25012 0.633327 0
4.2501 0.699992 0
4.25008 0.766658 0
4.25006 0.833326 0
4.25004 0.899995 0
4.25001 0.966665 0
4.41667 0.033334 0
4.41669 0.100002 0
4.4167 0.166669 0
4.41672 0.233336 0
4.41673 0.300003 0
4.41673 0.366669 0
4.41674 0.433335 0
4.41674 0.5 0
4.41674 0.566665 0
4.41673 0.633331 0
4.41673 0.699997 0
4.41672 0.766664 0
4.4167 0.833331 0
4.41669 0.899998 0
4.41667 0.966666 0
4.58334 0.0333336 0
4.58335 0.100001 0
4.58335 0.166668 0
4.58336 0.233334 0
4.58337 0.300001 0
4.58337 0.366667 0
4.58337 0.433334 0
4.58338 0.5 0
4.58337 0.566666 0
4.58337 0.633333 0
4.58337 0.699999 0
4.58336 0.766666 0
4.58335 0.833332 0
4.58335 0.899999 0
4.58334 0.966666 0
4.75 0.0333334 0
4.75001 0.1 0
4.75001 0.166667 0
4.75001 0.233334 0
4.75002 0.3 0
4.75002 0.366667 0
4.75002 0.433333 0
4.75002 0.5 0
4.75002 0.566667 0
4.75002 0.633333 0
4.75002 0.7 0
4.75001 0.766666 0
4.75001 0.833333 0
4.75001 0.9 0
4.75 0.966667 0
4.91667 0.0333334 0
4.91667 0.1 0
4.91667 0.166667 0
4.91667 0.233333 0
4.91667 0.3 0
4.91667 0.366667 0
4.91667 0.433333 0
4.91667 0.5 0
4.91667 0.566667 0
4.91667 0.633333 0
4.91667 0.7 0
4.91667 0.766667 0
4.91667 0.833333 0
4.91667 0.9 0
4.91667 0.966667 0
POINT_DATA 450
SCALARS pressure float 1
LOOKUP_TABLE default
94473.7
94473.5
94473.3
94472.9
94472.6
94472.3
94472
94472
94472
94472.2
94472.5
94472.9
94473.2
94473.5
94473.6
94206.5
94206.4
94206.4
94206.2
94206.1
94205.9
94206
94205.7
94205.9
94205.8
94206.1
94206.1
94206.3
94206.3
94206.3
94533.2
94533.6
94534.1
94534.9
94535.6
94536.3
94536.8
94536.9
94536.8
94536.3
94535.6
94534.9
94534.1
94533.6
94533.2
94133.5
94134
94135.1
94136
94137.7
94138.3
94139.6
94139.3
94139.6
94138.2
94137.6
94135.8
94134.9
94133.7
94133.3
94608.3
94609.1
94610.5
94612.3
94614.2
94615.7
94616.9
94617.1
94616.9
94615.6
94614.2
94612.2
94610.5
94609.1
94608.3
94045.3
94045
94047
94046.6
94049.7
94048.7
94051.6
94049.5
94051.5
94048.4
94049.3
94046.1
94046.5
94044.4
94044.7
94713
94712.6
94713.6
94713.1
94714.5
94713.9
94715.2
94714.2
94715.2
94713.7
94714.3
94712.9
94713.3
94712.3
94712.7
93946.3
93939.1
93940.2
93927.4
93930.2
93917.5
93923.2
93913.5
93922.8
93916.8
93929.1
93926.1
93938.6
93937.4
93944.5
94878.7
94867.1
94862.7
94845.6
94841.1
94826.6
94827.2
94819.1
94827
94826
94840.6
94844.6
94861.9
94865.9
94877.7
93907.5
93841.2
93835.4
93754.8
93750.3
93689.2
93699.1
93664.9
93698
93687.3
93747.3
93751.2
93830.7
93836.2
93902.1
95283.6
95141.6
95102.7
94990.9
94957.7
94886
94880.9
94848.8
94880.5
94883.9
94956.5
94987
95100.9
95136.7
95281
94576.3
93815
93771.9
93352.8
93300.7
93100.6
93093
93021.1
93090.6
93097.2
93293.4
93344.9
93759.2
93800.7
94557.8
96104.1
95461.9
95051.9
94756
94613
94478.5
94440.2
94400.1
94439.6
94472.8
94611.9
94742.8
95051.6
95437.2
96104.9
89136.2
90213.6
89828.6
90519.1
90314.2
90746.1
90553
90826.7
90552.7
90750.8
90313.4
90531.3
89827.6
90240.2
89128.1
90209.9
91519.4
91410
92232
92070.5
92592
92363.3
92702.2
92359.9
92595.1
92059.8
92239.2
91390.9
91532.9
90174.1
87370.9
88848.7
88627.4
89612.4
89372.8
90030.2
89717.7
90162
89710.9
90026.7
89350.9
89602.3
88587.1
88823.7
87296.5
91764.3
92525
92294.4
92847.8
92626.5
93037.9
92782.3
93100.5
92776.6
93041.2
92608.1
92853.3
92258.1
92528.3
91700.8
93237.8
92720.7
92590.8
92411.3
92289
92291.7
92173.9
92265
92171.1
92308.5
92280.3
92449.3
92573.1
92792.8
93232.6
96857.9
95827.2
95647.7
95163.7
95024.3
94825.2
94759
94725
94765.6
94837.9
95046.2
95189.4
95691.2
95865.5
96957.7
93011.6
93086.1
93061.5
93091.5
93061.5
93084.6
93052.3
93081.2
93051.3
93086
93058.2
93092.7
93055.2
93083.6
93002.8
95124
95041.6
95001.2
94907
94869.9
94809.6
94796
94776.6
94798.4
94814
94876.9
94914.8
95011.6
95051.5
95136.9
93524.2
93526.6
93523.5
93524.3
93518.6
93520.3
93514.2
93518.5
93514
93520.4
93518.1
93524.2
93522.7
93526.3
93523.8
94629.2
94620.4
94611.1
94593.8
94583.4
94568.8
94564.6
94559.3
94565.1
94569.8
94584.8
94595.4
94613
94622.2
94631.1
93792.7
93790.9
93788
93783.7
93779.2
93775.5
93772.6
93772
93772.6
93775.6
93779.3
93783.9
93788.2
93791.3
93793.2
94418.6
94415.7
94411.4
94404.9
94399.4
94393.4
94390.6
94388.7
94390.7
94393.5
94399.5
94405
94411.5
94415.7
94418.5
93932.3
93930.9
93928.3
93924.6
93921.1
93917.7
93915.6
93914.7
93915.7
93917.8
93921.3
93924.9
93928.7
93931.3
93932.8
94310.3
94309.1
94306.8
94303.8
94301
94298.1
94296.6
94295.7
94296.6
94298.1
94300.9
94303.6
94306.6
94308.8
94310
93998.2
93997.8
93996.9
93995.7
93994.6
93993.3
93992.8
93992.4
93992.8
93993.5
93994.7
93996
93997.2
93998.2
93998.6
94256.9
94256.8
94256.4
94256
94255.6
94255.1
94255
94254.8
94255
94255.1
94255.5
94255.9
94256.3
94256.7
94256.7
94024.5
94024.8
94025.3
94025.7
94026.2
94026.5
94026.8
94026.9
94026.9
94026.7
94026.5
94026.1
94025.7
94025.4
94025.2
SCALARS density float 1
LOOKUP_TABLE default
1.21459
1.21459
1.21459
1.21459
1.21459
1.21459
1.21458
1.21458
1.21458
1.21459
1.21459
1.21459
1.21459
1.21459
1.21459
1.21213
1.21213
1.21213
1.21213
1.21213
1.21212
1.21213
1.21212
1.21213
1.21212
1.21213
1.21213
1.21213
1.21213
1.21213
1.21513
1.21513
1.21514
1.21514
1.21515
1.21516
1.21516
1.21516
1.21516
1.21516
1.21515
1.21514
1.21514
1.21513
1.21513
1.21146
1.21146
1.21147
1.21148
1.2115
1.21151
1.21152
1.21152
1.21152
1.21151
1.2115
1.21148
1.21147
1.21146
1.21146
1.21582
1.21582
1.21584
1.21585
1.21587
1.21589
1.2159
1.2159
1.2159
1.21589
1.21587
1.21585
1.21584
1.21582
1.21582
1.21066
1.21066
1.21068
1.21068
1.21071
1.2107
1.21073
1.21071
1.21073
1.2107
1.2107
1.21067
1.21067
1.21065
1.21066
1.21676
1.21676
1.21677
1.21677
1.21678
1.21677
1.21679
1.21678
1.21679
1.21677
1.21678
1.21677
1.21677
1.21676
1.21676
1.20981
1.20974
1.20976
1.20964
1.20967
1.20955
1.20961
1.20952
1.20961
1.20955
1.20966
1.20963
1.20974
1.20973
1.20979
1.21816
1.21805
1.21803
1.21789
1.21786
1.21773
1.21773
1.21766
1.21773
1.21772
1.21785
1.21788
1.21802
1.21804
1.21815
1.20981
1.2092
1.2091
1.20832
1.20826
1.20769
1.20777
1.20746
1.20776
1.20767
1.20823
1.20829
1.20905
1.20915
1.20976
1.22089
1.21981
1.21964
1.21877
1.21855
1.21795
1.21792
1.21764
1.21792
1.21793
1.21855
1.21874
1.21963
1.21977
1.22088
1.21872
1.21075
1.20984
1.20555
1.20486
1.20283
1.2027
1.20198
1.20267
1.20279
1.20478
1.20546
1.20972
1.21062
1.21855
1.22571
1.2209
1.21787
1.21579
1.21474
1.21371
1.21344
1.21312
1.21343
1.21367
1.21474
1.21569
1.21789
1.22064
1.2257
1.16444
1.17508
1.17118
1.17779
1.17588
1.18
1.17819
1.18077
1.17818
1.18004
1.17587
1.1779
1.17116
1.17546
1.16501
1.17547
1.18818
1.18667
1.19424
1.19259
1.19743
1.19525
1.19841
1.19521
1.19746
1.19249
1.1943
1.1865
1.18853
1.17568
1.14718
1.1616
1.15949
1.16874
1.16651
1.17272
1.16984
1.17399
1.16977
1.17269
1.1663
1.16863
1.15914
1.16161
1.147
1.18882
1.19643
1.19458
1.19968
1.19773
1.2015
1.19921
1.20209
1.19916
1.20153
1.19756
1.1997
1.19427
1.19672
1.18916
1.20178
1.19782
1.19693
1.19507
1.19394
1.1939
1.19289
1.19367
1.19287
1.19406
1.19386
1.19538
1.19678
1.19892
1.20306
1.23287
1.22534
1.2246
1.22042
1.21922
1.21747
1.21693
1.21662
1.217
1.21758
1.21939
1.22058
1.22502
1.22618
1.23502
1.19882
1.20035
1.20086
1.20136
1.20111
1.20134
1.20109
1.20136
1.20108
1.20135
1.20104
1.2013
1.20088
1.20085
1.19983
1.21832
1.21827
1.21864
1.21807
1.21777
1.21724
1.21716
1.217
1.21719
1.21727
1.21778
1.21807
1.21884
1.21893
1.2195
1.20378
1.2044
1.20505
1.20537
1.20538
1.2054
1.20538
1.20543
1.20538
1.20539
1.20532
1.20531
1.20517
1.20498
1.20478
1.21397
1.21444
1.21501
1.2152
1.21518
1.21505
1.21504
1.215
1.21504
1.21504
1.21513
1.21516
1.21519
1.21505
1.21496
1.20635
1.20684
1.20743
1.20776
1.20782
1.20779
1.20777
1.20778
1.20777
1.20776
1.20775
1.20772
1.20761
1.20744
1.2073
1.21211
1.21256
1.21311
1.21343
1.2135
1.21345
1.21343
1.21342
1.21343
1.21342
1.21343
1.2134
1.21332
1.21316
1.21304
1.20773
1.20815
1.2087
1.20906
1.20917
1.20915
1.20913
1.20913
1.20912
1.20911
1.20909
1.20904
1.20893
1.20876
1.20863
1.21111
1.21151
1.21204
1.2124
1.21253
1.21252
1.21251
1.2125
1.21249
1.21248
1.21245
1.21239
1.21227
1.21211
1.21199
1.20855
1.20894
1.20946
1.20985
1.21002
1.21003
1.21002
1.21001
1.21001
1.20998
1.20994
1.20986
1.20972
1.20954
1.20942
1.21028
1.21065
1.21116
1.21155
1.21172
1.21175
1.21174
1.21173
1.21172
1.2117
1.21165
1.21156
1.21141
1.21124
1.21113
1.20965
1.21
1.21051
1.21091
1.2111
1.21115
1.21114
1.21113
1.21112
1.21109
1.21103
1.21093
1.21078
1.2106
1.21049
SCALARS u-velocity float 1
LOOKUP_TABLE default
99.594
99.5952
99.5969
99.5994
99.6014
99.6036
99.6046
99.6055
99.6049
99.6042
99.6022
99.6005
99.5982
99.5966
99.5955
98.7357
98.7358
98.7363
98.737
98.7379
98.7388
98.7394
98.7397
98.7396
98.7391
98.7383
98.7376
98.7369
98.7364
98.7364
99.6995
99.7014
99.7036
99.7072
99.7089
99.712
99.7122
99.714
99.7127
99.7129
99.7103
99.7089
99.7057
99.7037
99.7019
98.6112
98.6085
98.605
98.6013
98.5986
98.5967
98.5955
98.5953
98.5957
98.5969
98.5989
98.6017
98.6053
98.6089
98.6115
99.8447
99.8528
99.8609
99.8737
99.8787
99.8884
99.8884
99.894
99.8894
99.8903
99.8815
99.8774
99.8653
99.8579
99.8501
98.4331
98.4217
98.407
98.3958
98.3885
98.3856
98.383
98.3838
98.3833
98.3862
98.3891
98.3967
98.4074
98.4218
98.4327
99.9731
100.019
100.059
100.119
100.142
100.185
100.188
100.208
100.19
100.189
100.149
100.127
100.07
100.032
99.9876
98.1815
98.1334
98.0947
98.089
98.091
98.1119
98.117
98.1316
98.1182
98.1147
98.0942
98.0936
98.0975
98.1342
98.1789
99.7862
100.076
100.231
100.494
100.601
100.771
100.797
100.863
100.802
100.78
100.616
100.511
100.255
100.109
99.8289
97.4444
97.3357
97.4521
97.6623
97.8106
98.0329
98.1177
98.2107
98.1232
98.0457
97.8239
97.6856
97.4711
97.3494
97.4279
97.8072
99.6629
100.013
101.225
101.725
102.275
102.461
102.597
102.47
102.29
101.755
101.258
100.057
99.7225
97.9468
89.6035
94.6021
96.4223
98.2279
99.2483
100.397
100.814
101.126
100.829
100.435
99.2894
98.3003
96.4997
94.7554
89.5248
89.9994
94.2041
101.735
104.028
106.534
106.988
108.033
107.782
108.049
107.02
106.589
104.121
101.864
94.2732
90.2802
123.811
120.298
120.882
119.446
119.759
118.285
118.685
117.821
118.686
118.259
119.766
119.375
120.83
120.352
124.983
134.83
130.577
127.565
124.975
123.931
122.166
121.981
121.206
121.998
122.185
123.977
124.975
127.636
131.038
136
137.002
133.261
130.024
127.581
126.38
124.925
124.55
123.996
124.582
124.978
126.468
127.674
130.265
133.895
138.148
117.892
120.319
118.202
118.468
117.437
117.544
116.815
117.058
116.837
117.545
117.483
118.419
118.338
120.854
120.141
89.3354
101.726
102.682
106.318
106.577
108.681
108.294
109.241
108.26
108.611
106.432
106.028
102.396
102.324
92.188
79.297
90.7342
95.7036
99.1543
100.362
102.132
102.291
102.948
102.248
102.075
100.144
98.8832
95.4831
91.794
81.7162
96.1434
98.7979
102.033
103.027
103.459
103.952
104.026
104.26
104.023
103.937
103.344
102.862
102.17
100.074
98.6704
91.182
93.9164
97.0408
98.5973
99.158
99.6877
99.8431
100.058
99.8347
99.6473
98.9964
98.4072
97.2291
95.2228
93.5927
95.9968
98.0339
100.585
101.808
102.193
102.349
102.444
102.515
102.448
102.316
102.057
101.675
100.9
99.3865
98.3191
93.5132
95.4641
97.8898
99.2755
99.7367
99.8999
99.9864
100.054
99.9858
99.848
99.5805
99.1543
98.2598
96.8406
95.7827
95.6634
97.4342
99.6706
101.045
101.526
101.631
101.686
101.719
101.683
101.57
101.371
100.958
100.099
98.8147
97.8533
94.4159
96.0925
98.2494
99.6793
100.224
100.343
100.381
100.406
100.372
100.267
100.062
99.6163
98.7233
97.487
96.5661
95.4888
97.0549
99.1116
100.55
101.14
101.266
101.287
101.298
101.27
101.178
100.978
100.514
99.6218
98.4438
97.5781
94.9372
96.4241
98.4165
99.8747
100.515
100.661
100.672
100.672
100.647
100.561
100.353
99.8639
98.9613
97.8179
96.991
95.4301
96.8372
98.7577
100.217
100.897
101.063
101.067
101.057
101.033
100.953
100.737
100.231
99.3292
98.2244
97.438
95.2937
96.6361
98.4995
99.963
100.681
100.87
100.87
100.85
100.826
100.749
100.524
99.9993
99.0965
98.0213
97.2678
95.4244
96.7074
98.5145
99.9742
100.724
100.937
100.938
100.911
100.885
100.807
100.572
100.033
99.1324
98.0863
97.363
SCALARS v-velocity float 1
LOOKUP_TABLE default
-0.000162056
-0.000152853
-0.000368769
-0.000214865
-0.000297685
-0.000171374
-0.000218294
-0.000201596
-0.000175652
-0.000199855
-3.41745e-05
-6.38745e-05
0.000156454
2.04329e-05
0.00011613
0.0019189
0.00447133
0.0069826
0.00763279
0.00748458
0.00579813
0.003422
0.00044356
-0.00255516
-0.00498357
-0.00675849
-0.00702572
-0.00652192
-0.00418519
-0.00181925
0.000606085
0.00172992
0.0028497
0.00354127
0.00361408
0.00293843
0.00160887
-8.06558e-05
-0.00176194
-0.00309596
-0.00376354
-0.00368366
-0.00297347
-0.00181233
-0.000639623
0.00441048
0.00886545
0.0144972
0.0146545
0.0147418
0.0109578
0.0068473
0.0013242
-0.0042641
-0.00851665
-0.0125558
-0.0128067
-0.0130728
-0.00797216
-0.00409266
-0.00207275
-0.00504381
-0.00574695
-0.0052422
-0.00359337
-0.00240334
-0.000968025
3.70604e-05
0.00107402
0.00242266
0.00356685
0.00511931
0.00554506
0.00488405
0.0019743
0.01419
0.0252783
0.0402293
0.0380217
0.0374505
0.0269404
0.0167401
0.00339925
-0.0101442
-0.0206222
-0.0317562
-0.0330977
-0.03629
-0.0227387
-0.0132311
-0.00764308
-0.0153261
-0.0127291
-0.00931077
-0.00289983
-0.00100719
0.00139544
0.000770266
0.00033972
0.00219111
0.00382379
0.0095865
0.0122938
0.0147891
0.00711803
0.0708845
0.112727
0.165396
0.160365
0.148258
0.108815
0.0616708
0.00824482
-0.0458984
-0.0932422
-0.134173
-0.147755
-0.154607
-0.105154
-0.0675142
0.0122272
0.087045
0.155631
0.170147
0.176912
0.135137
0.0808053
0.00476372
-0.0699724
-0.127254
-0.169733
-0.166141
-0.155261
-0.0891294
-0.0162664
0.374143
0.501852
0.682537
0.72016
0.591357
0.459526
0.233928
0.0182314
-0.200427
-0.424384
-0.560033
-0.690687
-0.656718
-0.479456
-0.357875
1.11214
1.71435
2.0121
1.90436
1.66675
1.19302
0.640566
0.0211421
-0.590459
-1.15485
-1.62582
-1.87756
-1.98875
-1.71135
-1.14307
-0.316023
3.35399
2.50134
3.06284
2.01821
1.69156
0.762387
0.0353187
-0.70288
-1.62391
-1.96535
-3.00511
-2.47244
-3.33299
0.353806
23.0999
19.9495
15.9914
12.9194
9.06002
6.1353
2.95558
0.0664744
-2.79501
-5.99945
-8.87863
-12.7825
-15.7664
-19.7767
-22.8712
25.1269
16.0649
13.168
8.69183
6.62522
3.84419
2.04787
0.0751645
-1.90694
-3.69082
-6.48469
-8.52243
-13.0005
-15.8667
-25.2963
11.4081
7.10075
6.75562
4.16065
3.72888
2.00411
1.21595
0.0684742
-1.13179
-1.873
-3.67229
-4.04105
-6.75403
-7.06461
-11.64
-8.23295
-8.56807
-4.69646
-4.81193
-2.38936
-2.10628
-0.685204
0.125952
0.864192
2.36022
2.57273
5.07744
4.89898
8.85633
8.4636
-20.8615
-18.1328
-12.1391
-10.0858
-6.23064
-4.40938
-1.84687
0.155724
2.06956
4.74416
6.48652
10.5004
12.514
18.7981
21.5369
-23.324
-18.4136
-14.4412
-10.8822
-7.85382
-4.98138
-2.42146
0.188108
2.61777
5.38098
8.05296
11.3696
14.681
19.1799
23.9067
-2.47354
-0.495378
-2.22687
-1.32216
-1.74643
-0.909493
-0.61864
0.0441216
0.642108
0.983524
1.74922
1.37046
2.19744
0.429888
2.33441
-1.91522
-2.22945
-2.71536
-2.22476
-2.05703
-1.3006
-0.714275
0.056373
0.780286
1.40255
2.11712
2.31106
2.75211
2.1881
1.89263
-0.203843
-0.284696
-0.391697
-0.228437
-0.357775
-0.184935
-0.139727
0.010481
0.14471
0.201874
0.368683
0.250004
0.39187
0.238981
0.177982
-0.182115
-0.378701
-0.452634
-0.365054
-0.39122
-0.259603
-0.153518
0.0117603
0.168014
0.280877
0.411436
0.386603
0.448397
0.334228
0.158242
-0.0432025
-0.115796
-0.0923929
-0.0397142
-0.0627619
-0.0432813
-0.0329583
0.00213187
0.0346087
0.050154
0.0751996
0.0535631
0.0868953
0.0844848
0.0251772
-0.0473585
-0.114782
-0.0990475
-0.0559286
-0.0581267
-0.0468209
-0.031819
0.000301527
0.0316912
0.0513681
0.0678448
0.0632185
0.0861074
0.081705
0.029345
-0.0264103
-0.0596805
-0.0321956
0.00474466
0.00674461
-0.000511752
-0.00535827
-0.000396499
0.00529176
0.00547503
0.00385983
0.00310728
0.0226677
0.0346913
0.0126415
-0.0262472
-0.0561073
-0.0335986
0.00124222
0.00909619
0.00220225
-0.00401215
-0.00228273
0.000809716
-0.000308358
-0.00257014
0.000812783
0.0191729
0.0298857
0.0126975
-0.0189075
-0.0376382
-0.0149148
0.0166928
0.0254086
0.0159417
0.00444304
-0.00128586
-0.00522522
-0.011535
-0.0169419
-0.0130596
0.00377587
0.0165891
0.0080205
-0.0188015
-0.0381186
-0.0197549
0.00952236
0.0206615
0.0136815
0.00310715
-0.00277642
-0.00665157
-0.0121382
-0.0159194
-0.0102956
0.00546876
0.0163592
0.00810049
-0.015772
-0.031612
-0.0156354
0.0105382
0.0219571
0.0160356
0.00531751
-0.00190076
-0.0069683
-0.0127133
-0.0160405
-0.0102772
0.00366531
0.0132408
0.00677538
-0.0176555
-0.0371501
-0.0253009
-0.00079019
0.0123497
0.00959544
0.00189484
-0.00273588
-0.00515223
-0.00802351
-0.00876817
-0.00172833
0.0110991
0.0177626
0.00845482
SCALARS Mach float 1
LOOKUP_TABLE default
30.0582
30.0589
30.06
30.0615
30.0627
30.0641
30.0647
30.0653
30.0649
30.0645
30.0632
30.0622
30.0608
30.0598
30.0591
29.5541
29.5542
29.5545
29.5549
29.5555
29.556
29.5564
29.5566
29.5565
29.5562
29.5557
29.5553
29.5549
29.5546
29.5545
30.119
30.1201
30.1215
30.1236
30.1246
30.1264
30.1266
30.1276
30.1269
30.127
30.1254
30.1246
30.1227
30.1215
30.1205
29.4829
29.4813
29.4791
29.4769
29.4752
29.4741
29.4734
29.4732
29.4734
29.4742
29.4754
29.4772
29.4794
29.4815
29.4831
30.2034
30.2083
30.2131
30.2208
30.2237
30.2295
30.2294
30.2328
30.23
30.2307
30.2254
30.223
30.2158
30.2113
30.2067
29.3806
29.3738
29.365
29.3584
29.3539
29.3522
29.3506
29.3511
29.3507
29.3526
29.3543
29.3589
29.3653
29.3739
29.3804
30.2761
30.304
30.3282
30.3643
30.3787
30.4044
30.4063
30.4188
30.4077
30.407
30.3827
30.3693
30.3346
30.3117
30.2849
29.2357
29.2075
29.1844
29.1816
29.1827
29.1957
29.1985
29.2077
29.1992
29.1975
29.1846
29.1844
29.1862
29.208
29.2342
30.1539
30.3301
30.4246
30.5852
30.6508
30.7553
30.7712
30.8117
30.7741
30.7608
30.6597
30.5958
30.4394
30.3497
30.1798
28.8048
28.7438
28.8129
28.9406
29.028
29.1623
29.2118
29.2685
29.2151
29.1699
29.0359
28.9545
28.8242
28.7521
28.7952
28.9443
30.0671
30.2861
31.0303
31.3373
31.6771
31.7902
31.8746
31.7954
31.6866
31.3557
31.0507
30.3129
30.1034
29.0275
24.3586
27.2066
28.2431
29.333
29.9286
30.6286
30.876
31.0687
30.8854
30.6514
29.953
29.3753
28.2883
27.2949
24.3165
26.0583
28.0255
32.0849
33.2669
34.6185
34.7878
35.3834
35.1959
35.3913
34.8036
34.6447
33.3159
32.1429
28.0448
26.1791
48.7542
44.9292
45.1221
43.7259
43.8713
42.6853
42.9552
42.3018
42.9537
42.6631
43.8708
43.6641
45.0702
44.9497
49.6857
55.8578
52.0759
49.6919
47.5519
46.7596
45.3727
45.2423
44.6418
45.2545
45.3851
46.7945
47.5484
49.748
52.4455
56.8572
57.6879
54.4928
51.7488
49.7512
48.7853
47.6167
47.3438
46.889
47.3689
47.6612
48.8577
49.8321
51.9499
55.033
58.6861
43.6029
44.9961
42.93
42.9461
42.0318
42.022
41.4722
41.6132
41.4906
42.0319
42.0754
42.9357
43.0588
45.4676
45.3407
25.8665
32.4643
32.6725
34.7141
34.7165
35.9796
35.6745
36.2774
35.6556
35.9451
34.6324
34.5578
32.5164
32.9249
27.5366
18.9786
24.8814
27.7132
29.7616
30.5023
31.591
31.692
32.1009
31.6653
31.5553
30.3684
29.5974
27.5838
25.4695
20.1582
28.058
29.639
31.6288
32.2423
32.5126
32.8146
32.8599
33.0048
32.8583
32.8054
32.4404
32.1392
31.7157
30.4155
29.5652
25.1473
26.6893
28.5053
29.4344
29.7725
30.0942
30.1892
30.3205
30.1841
30.0695
29.6747
29.3198
28.6168
27.4429
26.5056
27.9423
29.1483
30.6936
31.4487
31.6881
31.7847
31.8442
31.8886
31.847
31.7641
31.603
31.3661
30.888
29.9653
29.3228
26.4711
27.5938
29.0222
29.8547
30.1342
30.2336
30.2865
30.3276
30.2861
30.2019
30.039
29.7811
29.2438
28.4022
27.7827
27.7383
28.7809
30.1251
30.9665
31.2632
31.3283
31.3625
31.3832
31.3608
31.2905
31.1671
30.9128
30.3868
29.6095
29.0341
26.9941
27.9669
29.2438
30.1062
30.4381
30.5106
30.5342
30.5492
30.5281
30.4642
30.3389
30.0678
29.5291
28.7916
28.2484
27.6324
28.5514
29.7815
30.6572
31.02
31.0977
31.1111
31.1174
31.1004
31.0434
30.9199
30.6351
30.0916
29.3817
28.8655
27.2974
28.164
29.3466
30.2278
30.6188
30.7083
30.7151
30.715
30.6991
30.6468
30.519
30.2211
29.6753
28.9913
28.5016
27.5981
28.4226
29.5677
30.4532
30.8701
30.9723
30.9747
30.9683
30.9532
30.9039
30.7715
30.4614
29.914
29.25
28.782
27.5012
28.2858
29.3933
30.2782
30.717
30.8327
30.8326
30.8207
30.8056
30.7582
30.6205
30.3004
29.7538
29.1097
28.6624
27.6035
28.3549
29.4305
30.3141
30.7729
30.9034
30.9038
30.8875
30.8714
30.8234
30.6792
30.3497
29.8041
29.1764
28.7463
