# vtk DataFile Version 3.0
Structured Grid Example
ASCII
DATASET STRUCTURED_GRID
DIMENSIONS 15 30 1
POINTS 450 FLOAT
0.0833327 0.0333334 0
0.0833313 0.1 0
0.0833301 0.166667 0
0.083329 0.233333 0
0.0833281 0.3 0
0.0833274 0.366667 0
0.083327 0.433333 0
0.0833268 0.5 0
0.083327 0.566667 0
0.0833274 0.633333 0
0.0833281 0.7 0
0.083329 0.766667 0
0.0833301 0.833333 0
0.0833313 0.9 0
0.0833327 0.966667 0
0.249998 0.0333334 0
0.249993 0.1 0
0.249989 0.166667 0
0.249986 0.233334 0
0.249983 0.3 0
0.24998 0.366667 0
0.249979 0.433333 0
0.249979 0.5 0
0.249979 0.566667 0
0.24998 0.633333 0
0.249983 0.7 0
0.249986 0.766666 0
0.249989 0.833333 0
0.249993 0.9 0
0.249998 0.966667 0
0.416662 0.0333336 0
0.416654 0.100001 0
0.416646 0.166668 0
0.416639 0.233334 0
0.416633 0.300001 0
0.416628 0.366667 0
0.416626 0.433334 0
0.416625 0.5 0
0.416626 0.566666 0
0.416628 0.633333 0
0.416633 0.699999 0
0.416639 0.766666 0
0.416646 0.833332 0
0.416654 0.899999 0
0.416662 0.966666 0
0.583326 0.033334 0
0.58331 0.100002 0
0.583296 0.166669 0
0.583284 0.233336 0
0.583273 0.300003 0
0.583266 0.366669 0
0.583261 0.433335 0
0.583259 0.5 0
0.583261 0.566665 0
0.583266 0.633331 0
0.583273 0.699997 0
0.583284 0.766664 0
0.583296 0.833331 0
0.58331 0.899998 0
0.583326 0.966666 0
0.749987 0.0333351 0
0.749961 0.100005 0
0.749937 0.166674 0
0.749915 0.233342 0
0.749898 0.300008 0
0.749884 0.366673 0
0.749876 0.433337 0
0.749874 0.5 0
0.749876 0.566663 0
0.749884 0.633327 0
0.749898 0.699992 0
0.749915 0.766658 0
0.749937 0.833326 0
0.749961 0.899995 0
0.749987 0.966665 0
0.916644 0.033338 0
0.916601 0.100013 0
0.91656 0.166686 0
0.916524 0.233356 0
0.916494 0.300021 0
0.916472 0.366683 0
0.916458 0.433342 0
0.916454 0.5 0
0.916458 0.566658 0
0.916472 0.633317 0
0.916494 0.699979 0
0.916524 0.766644 0
0.91656 0.833314 0
0.916601 0.899987 0
0.916644 0.966662 0
1.0833 0.0333461 0
1.08322 0.100036 0
1.08315 0.166719 0
1.08309 0.233394 0
1.08304 0.300058 0
1.08301 0.366712 0
1.08298 0.433358 0
1.08298 0.5 0
1.08298 0.566642 0
1.08301 0.633288 0
1.08304 0.699942 0
1.08309 0.766606 0
1.08315 0.833281 0
1.08322 0.899964 0
1.0833 0.966654 0
1.24994 0.0333682 0
1.24981 0.100098 0
1.2497 0.16681 0
1.24959 0.233497 0
1.24951 0.300156 0
1.24945 0.366788 0
1.24942 0.433399 0
1.2494 0.5 0
1.24942 0.566601 0
1.24945 0.633212 0
1.24951 0.699844 0
1.24959 0.766503 0
1.2497 0.83319 0
1.24981 0.899902 0
1.24994 0.966632 0
1.41656 0.0334298 0
1.41634 0.10027 0
1.41615 0.16706 0
1.41598 0.233778 0
1.41585 0.300419 0
1.41575 0.36699 0
1.41569 0.433509 0
1.41567 0.5 0
1.41569 0.566491 0
1.41575 0.63301 0
1.41585 0.699581 0
1.41598 0.766222 0
1.41615 0.83294 0
1.41634 0.89973 0
1.41656 0.96657 0
1.58313 0.0336075 0
1.58275 0.10076 0
1.58242 0.167751 0
1.58215 0.234537 0
1.58195 0.301115 0
1.58181 0.367517 0
1.58173 0.433791 0
1.58171 0.5 0
1.58173 0.566209 0
1.58181 0.632483 0
1.58195 0.698885 0
1.58215 0.765463 0
1.58242 0.832249 0
1.58275 0.89924 0
1.58313 0.966392 0
1.74959 0.0341677 0
1.74885 0.102235 0
1.74829 0.169714 0
1.74791 0.236575 0
1.74766 0.302905 0
1.74751 0.368829 0
1.74744 0.434482 0
1.74741 0.5 0
1.74744 0.565518 0
1.74751 0.631171 0
1.74766 0.697095 0
1.74791 0.763425 0
1.74829 0.830286 0
1.74885 0.897765 0
1.74959 0.965832 0
1.91555 0.0363295 0
1.91388 0.107253 0
1.91312 0.175401 0
1.91283 0.241837 0
1.91276 0.307169 0
1.91277 0.371793 0
1.9128 0.435995 0
1.91281 0.5 0
1.9128 0.564005 0
1.91277 0.628207 0
1.91276 0.692831 0
1.91283 0.758163 0
1.91312 0.824599 0
1.91388 0.892747 0
1.91555 0.963671 0
2.07838 0.0591504 0
2.07417 0.125973 0
2.07554 0.190391 0
2.07663 0.253364 0
2.07743 0.315525 0
2.07798 0.377223 0
2.07829 0.438667 0
2.0784 0.5 0
2.07829 0.561333 0
2.07798 0.622777 0
2.07743 0.684475 0
2.07663 0.746636 0
2.07554 0.809609 0
2.07417 0.874027 0
2.07838 0.94085 0
2.24384 0.096456 0
2.23911 0.153168 0
2.24152 0.210396 0
2.24318 0.267878 0
2.24431 0.325632 0
2.24503 0.383617 0
2.24544 0.441767 0
2.24557 0.5 0
2.24544 0.558233 0
2.24503 0.616383 0
2.24431 0.674368 0
2.24318 0.732122 0
2.24152 0.789604 0
2.23911 0.846832 0
2.24384 0.903544 0
2.41462 0.118677 0
2.41292 0.170231 0
2.41356 0.223198 0
2.41406 0.277268 0
2.41444 0.332207 0
2.4147 0.387788 0
2.41485 0.44379 0
2.4149 0.5 0
2.41485 0.55621 0
2.4147 0.612212 0
2.41444 0.667793 0
2.41406 0.722732 0
2.41356 0.776802 0
2.41292 0.829769 0
2.41462 0.881323 0
2.58538 0.118677 0
2.58708 0.170231 0
2.58644 0.223198 0
2.58594 0.277268 0
2.58556 0.332207 0
2.5853 0.387788 0
2.58515 0.44379 0
2.5851 0.5 0
2.58515 0.55621 0
2.5853 0.612212 0
2.58556 0.667793 0
2.58594 0.722732 0
2.58644 0.776802 0
2.58708 0.829769 0
2.58538 0.881323 0
2.75616 0.096456 0
2.76089 0.153168 0
2.75848 0.210396 0
2.75682 0.267878 0
2.75569 0.325632 0
2.75497 0.383617 0
2.75456 0.441767 0
2.75443 0.5 0
2.75456 0.558233 0
2.75497 0.616383 0
2.75569 0.674368 0
2.75682 0.732122 0
2.75848 0.789604 0
2.76089 0.846832 0
2.75616 0.903544 0
2.92162 0.0591504 0
2.92583 0.125973 0
2.92446 0.190391 0
2.92337 0.253364 0
2.92257 0.315525 0
2.92202 0.377223 0
2.92171 0.438667 0
2.9216 0.5 0
2.92171 0.561333 0
2.92202 0.622777 0
2.92257 0.684475 0
2.92337 0.746636 0
2.92446 0.809609 0
2.92583 0.874027 0
2.92162 0.94085 0
3.08445 0.0363295 0
3.08612 0.107253 0
3.08688 0.175401 0
3.08717 0.241837 0
3.08724 0.307169 0
3.08723 0.371793 0
3.0872 0.435995 0
3.08719 0.5 0
3.0872 0.564005 0
3.08723 0.628207 0
3.08724 0.692831 0
3.08717 0.758163 0
3.08688 0.824599 0
3.08612 0.892747 0
3.08445 0.963671 0
3.25041 0.0341677 0
3.25115 0.102235 0
3.25171 0.169714 0
3.25209 0.236575 0
3.25234 0.302905 0
3.25249 0.368829 0
3.25256 0.434482 0
3.25259 0.5 0
3.25256 0.565518 0
3.25249 0.631171 0
3.25234 0.697095 0
3.25209 0.763425 0
3.25171 0.830286 0
3.25115 0.897765 0
3.25041 0.965832 0
3.41687 0.0336075 0
3.41725 0.10076 0
3.41758 0.167751 0
3.41785 0.234537 0
3.41805 0.301115 0
3.41819 0.367517 0
3.41827 0.433791 0
3.41829 0.5 0
3.41827 0.566209 0
3.41819 0.632483 0
3.41805 0.698885 0
3.41785 0.765463 0
3.41758 0.832249 0
3.41725 0.89924 0
3.41687 0.966392 0
3.58344 0.0334298 0
3.58366 0.10027 0
3.58385 0.16706 0
3.58402 0.233778 0
3.58415 0.300419 0
3.58425 0.36699 0
3.58431 0.433509 0
3.58433 0.5 0
3.58431 0.566491 0
3.58425 0.63301 0
3.58415 0.699581 0
3.58402 0.766222 0
3.58385 0.83294 0
3.58366 0.89973 0
3.58344 0.96657 0
3.75006 0.0333682 0
3.75019 0.100098 0
3.7503 0.16681 0
3.75041 0.233497 0
3.75049 0.300156 0
3.75055 0.366788 0
3.75058 0.433399 0
3.7506 0.5 0
3.75058 0.566601 0
3.75055 0.633212 0
3.75049 0.699844 0
3.75041 0.766503 0
3.7503 0.83319 0
3.75019 0.899902 0
3.75006 0.966632 0
3.9167 0.0333461 0
3.91678 0.100036 0
3.91685 0.166719 0
3.91691 0.233394 0
3.91696 0.300058 0
3.91699 0.366712 0
3.91702 0.433358 0
3.91702 0.5 0
3.91702 0.566642 0
3.91699 0.633288 0
3.91696 0.699942 0
3.91691 0.766606 0
3.91685 0.833281 0
3.91678 0.899964 0
3.9167 0.966654 0
4.08336 0.033338 0
4.0834 0.100013 0
4.08344 0.166686 0
4.08348 0.233356 0
4.08351 0.300021 0
4.08353 0.366683 0
4.08354 0.433342 0
4.08355 0.5 0
4.08354 0.566658 0
4.08353 0.633317 0
4.08351 0.699979 0
4.08348 0.766644 0
4.08344 0.833314 0
4.0834 0.899987 0
4.08336 0.966662 0
4.25001 0.0333351 0
4.25004 0.100005 0
4.25006 0.166674 0
4.25008 0.233342 0
4.2501 0.300008 0
4.25012 0.366673 0
4.25012 0.433337 0
4.25013 0.5 0
4.25012 0.566663 0
4.25012 0.633327 0
4.2501 0.699992 0
4.25008 0.766658 0
4.25006 0.833326 0
4.25004 0.899995 0
4.25001 0.966665 0
4.41667 0.033334 0
4.41669 0.100002 0
4.4167 0.166669 0
4.41672 0.233336 0
4.41673 0.300003 0
4.41673 0.366669 0
4.41674 0.433335 0
4.41674 0.5 0
4.41674 0.566665 0
4.41673 0.633331 0
4.41673 0.699997 0
4.41672 0.766664 0
4.4167 0.833331 0
4.41669 0.899998 0
4.41667 0.966666 0
4.58334 0.0333336 0
4.58335 0.100001 0
4.58335 0.166668 0
4.58336 0.233334 0
4.58337 0.300001 0
4.58337 0.366667 0
4.58337 0.433334 0
4.58338 0.5 0
4.58337 0.566666 0
4.58337 0.633333 0
4.58337 0.699999 0
4.58336 0.766666 0
4.58335 0.833332 0
4.58335 0.899999 0
4.58334 0.966666 0
4.75 0.0333334 0
4.75001 0.1 0
4.75001 0.166667 0
4.75001 0.233334 0
4.75002 0.3 0
4.75002 0.366667 0
4.75002 0.433333 0
4.75002 0.5 0
4.75002 0.566667 0
4.75002 0.633333 0
4.75002 0.7 0
4.75001 0.766666 0
4.75001 0.833333 0
4.75001 0.9 0
4.75 0.966667 0
4.91667 0.0333334 0
4.91667 0.1 0
4.91667 0.166667 0
4.91667 0.233333 0
4.91667 0.3 0
4.91667 0.366667 0
4.91667 0.433333 0
4.91667 0.5 0
4.91667 0.566667 0
4.91667 0.633333 0
4.91667 0.7 0
4.91667 0.766667 0
4.91667 0.833333 0
4.91667 0.9 0
4.91667 0.966667 0
POINT_DATA 450
SCALARS pressure float 1
LOOKUP_TABLE default
94472.8
94472.9
94472.8
94472.8
94472.8
94472.8
94472.8
94472.8
94472.8
94472.8
94472.8
94472.8
94472.8
94472.8
94472.8
94206.3
94206.3
94206.3
94206.1
94206.2
94206
94206.1
94206
94206.1
94206
94206.1
94206.1
94206.2
94206.1
94206.2
94535.1
94535.1
94535.1
94535.1
94535
94535
94535
94535
94535
94535
94535
94535
94535.1
94535.1
94535.1
94137.1
94136.8
94136.9
94136.4
94136.6
94135.9
94136.4
94135.7
94136.3
94135.8
94136.5
94136.2
94136.7
94136.6
94136.8
94613.3
94613.2
94613.1
94612.8
94612.7
94612.3
94612.3
94612.1
94612.3
94612.3
94612.6
94612.7
94613
94613.1
94613.2
94050.9
94049.6
94049.9
94047.2
94047.9
94044.8
94046.4
94043.7
94046.2
94044.5
94047.5
94046.6
94049.3
94049
94050.2
94718
94716.9
94716.2
94713.7
94713
94710.4
94710.6
94709
94710.5
94710.3
94712.8
94713.4
94715.9
94716.5
94717.7
93950
93942.2
93942.2
93927.9
93929.1
93915
93919.8
93909.7
93919.4
93914.2
93927.9
93926.5
93940.5
93940.4
93948.1
94880.2
94868.5
94863.5
94845.8
94840.7
94825.5
94825.8
94817.4
94825.6
94824.9
94840.1
94844.7
94862.6
94867.2
94879
93907
93841
93835.2
93754.8
93750.6
93689.5
93699.6
93665.3
93698.5
93687.6
93747.4
93751.1
93830.4
93835.8
93901.5
95281.4
95139.9
95101.6
94990.7
94958.4
94887.5
94883
94851
94882.6
94885.4
94957.2
94986.8
95099.7
95134.9
95278.7
94573.6
93812.8
93770.6
93352.7
93301.7
93102.7
93095.8
93024.1
93093.4
93099.2
93294.4
93344.7
93757.8
93798.5
94555
96101.6
95460
95050.8
94756
94614.1
94480.5
94442.7
94402.8
94442.2
94474.7
94612.9
94742.8
95050.6
95435.2
96102.4
89134.9
90212.6
89828.1
90519
90314.5
90746.8
90554
90827.8
90553.7
90751.5
90313.8
90531.2
89827
90239.2
89126.8
90209.8
91519.3
91409.9
92232
92070.5
92592.1
92363.3
92702.3
92359.9
92595.1
92059.8
92239.2
91390.9
91532.8
90174
87371.9
88849.5
88627.8
89612.5
89372.4
90029.6
89716.8
90161
89709.9
90026.1
89350.6
89602.4
88587.5
88824.5
87297.5
91766.6
92526.8
92295.4
92847.9
92625.7
93036.3
92780.1
93098.1
92774.4
93039.5
92607.2
92853.4
92259.1
92530.2
91703.1
93241.7
92723.9
92592.6
92411.5
92287.6
92288.9
92170.2
92260.9
92167.4
92305.7
92278.9
92449.5
92574.9
92795.9
93236.5
96862.1
95830.7
95649.8
95164.1
95023
94822.3
94755.3
94720.7
94761.9
94835
95045
95189.9
95693.4
95869.1
96961.9
93013.4
93087.9
93062.6
93091.9
93061.1
93083.4
93050.7
93079.3
93049.7
93084.8
93057.9
93093.1
93056.3
93085.4
93004.7
95122.5
95040.6
95000.4
94906.8
94870.3
94810.4
94797.3
94777.8
94799.6
94814.8
94877.3
94914.7
95010.9
95050.6
95135.5
93518.9
93522.5
93520.7
93523.6
93519.9
93523.4
93518.6
93523.2
93518.4
93523.5
93519.4
93523.6
93519.9
93522.2
93518.6
94620.6
94613.5
94606.5
94592.7
94585.7
94574.2
94572.1
94567.4
94572.6
94575.3
94587.2
94594.4
94608.5
94615.4
94622.5
93782.4
93782.5
93782.5
93782.5
93782.2
93782.3
93781.9
93782.2
93782
93782.4
93782.4
93782.8
93782.9
93783
93783
94408.2
94407.3
94406.1
94403.9
94402.7
94400.7
94400.4
94399.4
94400.5
94400.8
94402.9
94404.1
94406.2
94407.4
94408.2
93923.7
93923.8
93924
93923.9
93924.1
93924
93924.1
93924.1
93924.2
93924.2
93924.3
93924.3
93924.3
93924.3
93924.3
94304.2
94304
94303.8
94303.3
94303.1
94302.7
94302.6
94302.4
94302.6
94302.6
94303
94303.2
94303.6
94303.8
94304
93995.1
93995.2
93995.3
93995.4
93995.6
93995.6
93995.7
93995.7
93995.8
93995.7
93995.8
93995.7
93995.7
93995.6
93995.6
94255.9
94255.9
94255.8
94255.7
94255.7
94255.5
94255.5
94255.5
94255.5
94255.5
94255.6
94255.6
94255.7
94255.8
94255.8
94024.7
94024.9
94025.2
94025.4
94025.6
94025.7
94025.9
94025.9
94026
94025.9
94025.9
94025.8
94025.7
94025.5
94025.4
SCALARS density float 1
LOOKUP_TABLE default
1.21459
1.21459
1.21459
1.21459
1.21459
1.21459
1.21459
1.21459
1.21459
1.21459
1.21459
1.21459
1.21459
1.21459
1.21459
1.21212
1.21212
1.21213
1.21213
1.21213
1.21213
1.21213
1.21213
1.21213
1.21213
1.21213
1.21213
1.21213
1.21212
1.21212
1.21514
1.21514
1.21514
1.21515
1.21515
1.21515
1.21515
1.21515
1.21515
1.21515
1.21515
1.21515
1.21515
1.21515
1.21514
1.21149
1.21149
1.21149
1.21149
1.21149
1.21149
1.21149
1.21148
1.21149
1.21148
1.21149
1.21149
1.21149
1.21149
1.21149
1.21586
1.21586
1.21586
1.21586
1.21586
1.21586
1.21586
1.21585
1.21586
1.21586
1.21586
1.21586
1.21586
1.21586
1.21586
1.21071
1.2107
1.21071
1.21068
1.21069
1.21066
1.21068
1.21066
1.21068
1.21066
1.21069
1.21068
1.2107
1.2107
1.21071
1.21681
1.2168
1.21679
1.21677
1.21677
1.21674
1.21674
1.21673
1.21674
1.21674
1.21677
1.21677
1.21679
1.2168
1.21681
1.20984
1.20977
1.20977
1.20964
1.20966
1.20953
1.20958
1.20949
1.20958
1.20953
1.20965
1.20963
1.20976
1.20976
1.20982
1.21817
1.21807
1.21804
1.21789
1.21785
1.21772
1.21772
1.21764
1.21772
1.21771
1.21785
1.21788
1.21803
1.21806
1.21816
1.2098
1.2092
1.20909
1.20832
1.20826
1.20769
1.20778
1.20746
1.20777
1.20767
1.20823
1.20829
1.20905
1.20915
1.20975
1.22087
1.2198
1.21963
1.21877
1.21856
1.21796
1.21794
1.21766
1.21794
1.21794
1.21855
1.21874
1.21962
1.21975
1.22086
1.2187
1.21073
1.20983
1.20555
1.20487
1.20285
1.20272
1.20201
1.2027
1.20281
1.20479
1.20546
1.2097
1.2106
1.21852
1.22568
1.22089
1.21786
1.21579
1.21475
1.21373
1.21346
1.21314
1.21346
1.21368
1.21475
1.21569
1.21788
1.22063
1.22568
1.16443
1.17507
1.17118
1.17779
1.17588
1.18
1.17819
1.18078
1.17819
1.18005
1.17588
1.1779
1.17116
1.17545
1.16499
1.17547
1.18818
1.18667
1.19424
1.19259
1.19743
1.19525
1.19841
1.19521
1.19746
1.19249
1.1943
1.1865
1.18853
1.17567
1.14719
1.16161
1.15949
1.16875
1.16651
1.17272
1.16983
1.17398
1.16977
1.17268
1.1663
1.16863
1.15914
1.16162
1.14701
1.18884
1.19645
1.19459
1.19968
1.19773
1.20148
1.19919
1.20207
1.19914
1.20151
1.19755
1.19971
1.19428
1.19673
1.18918
1.20182
1.19785
1.19694
1.19507
1.19393
1.19387
1.19285
1.19363
1.19283
1.19403
1.19385
1.19538
1.1968
1.19895
1.2031
1.23291
1.22537
1.22462
1.22043
1.21921
1.21744
1.2169
1.21658
1.21696
1.21755
1.21938
1.22059
1.22504
1.22621
1.23506
1.19884
1.20036
1.20087
1.20136
1.2011
1.20133
1.20108
1.20134
1.20107
1.20134
1.20104
1.2013
1.20089
1.20087
1.19984
1.2183
1.21826
1.21863
1.21807
1.21778
1.21725
1.21717
1.21701
1.2172
1.21728
1.21779
1.21807
1.21883
1.21892
1.21948
1.20373
1.20436
1.20502
1.20537
1.20539
1.20543
1.20542
1.20547
1.20542
1.20542
1.20533
1.20531
1.20515
1.20494
1.20473
1.21389
1.21438
1.21497
1.21519
1.2152
1.2151
1.2151
1.21508
1.21511
1.21509
1.21515
1.21515
1.21515
1.21499
1.21489
1.20626
1.20676
1.20738
1.20775
1.20784
1.20785
1.20786
1.20787
1.20786
1.20782
1.20778
1.20771
1.20757
1.20736
1.20721
1.21202
1.21248
1.21306
1.21342
1.21353
1.21352
1.21352
1.21352
1.21352
1.21349
1.21346
1.21339
1.21327
1.21308
1.21294
1.20765
1.20809
1.20866
1.20905
1.20919
1.20921
1.20921
1.20921
1.2092
1.20917
1.20912
1.20903
1.20889
1.20869
1.20856
1.21106
1.21146
1.21201
1.2124
1.21255
1.21256
1.21256
1.21256
1.21255
1.21252
1.21247
1.21239
1.21224
1.21206
1.21193
1.20852
1.20891
1.20945
1.20985
1.21002
1.21005
1.21005
1.21004
1.21003
1.21
1.20995
1.20986
1.2097
1.20952
1.20939
1.21028
1.21064
1.21115
1.21154
1.21172
1.21175
1.21175
1.21174
1.21173
1.2117
1.21165
1.21156
1.21141
1.21124
1.21112
1.20965
1.21
1.21051
1.21091
1.2111
1.21114
1.21113
1.21112
1.21111
1.21108
1.21103
1.21093
1.21078
1.21061
1.21049
SCALARS u-velocity float 1
LOOKUP_TABLE default
99.5968
99.5975
99.5984
99.5998
99.6005
99.6018
99.602
99.6027
99.6023
99.6023
99.6014
99.6008
99.5996
99.5989
99.5982
98.7382
98.7379
98.7376
98.7373
98.7372
98.7371
98.7372
98.7372
98.7373
98.7374
98.7376
98.7378
98.7382
98.7385
98.7388
99.6993
99.7013
99.7035
99.7072
99.709
99.712
99.7124
99.7141
99.7128
99.713
99.7103
99.7089
99.7055
99.7035
99.7016
98.6091
98.6069
98.6039
98.6011
98.5992
98.598
98.5975
98.5974
98.5976
98.5983
98.5995
98.6015
98.6043
98.6072
98.6094
99.8409
99.8498
99.8589
99.8734
99.8798
99.891
99.8919
99.8978
99.8929
99.8929
99.8827
99.877
99.8634
99.8548
99.8463
98.4283
98.4178
98.4045
98.3953
98.3898
98.3887
98.3873
98.3885
98.3875
98.3893
98.3905
98.3962
98.405
98.4179
98.428
99.9689
100.016
100.057
100.118
100.144
100.188
100.192
100.213
100.194
100.192
100.15
100.126
100.068
100.028
99.9834
98.1789
98.1311
98.0933
98.0887
98.0918
98.1138
98.1194
98.1344
98.1207
98.1167
98.095
98.0934
98.0962
98.1319
98.1763
99.7855
100.076
100.231
100.494
100.601
100.772
100.798
100.864
100.803
100.781
100.616
100.511
100.255
100.108
99.8283
97.4462
97.3371
97.4531
97.6626
97.8102
98.0319
98.1163
98.2092
98.1218
98.0448
97.8236
97.6859
97.4721
97.3509
97.4297
97.8102
99.6653
100.014
101.225
101.723
102.272
102.458
102.593
102.467
102.288
101.754
101.259
100.059
99.725
97.9499
89.6068
94.6049
96.4238
98.2278
99.2466
100.394
100.81
101.122
100.826
100.432
99.2878
98.3003
96.5012
94.7582
89.5281
90.0026
94.2066
101.737
104.029
106.533
106.986
108.03
107.779
108.046
107.018
106.588
104.122
101.866
94.2757
90.2833
123.813
120.3
120.883
119.447
119.759
118.284
118.685
117.82
118.685
118.259
119.766
119.375
120.831
120.353
124.985
134.83
130.577
127.565
124.975
123.931
122.166
121.981
121.206
121.998
122.185
123.977
124.975
127.636
131.038
136
137
133.26
130.023
127.581
126.38
124.925
124.551
123.996
124.582
124.978
126.468
127.674
130.263
133.893
138.146
117.888
120.317
118.2
118.468
117.438
117.545
116.817
117.061
116.839
117.546
117.483
118.419
118.336
120.852
120.137
89.3304
101.722
102.68
106.318
106.58
108.686
108.3
109.248
108.267
108.616
106.435
106.029
102.394
102.32
92.1831
79.292
90.7299
95.7015
99.1548
100.366
102.138
102.298
102.956
102.255
102.08
100.147
98.8838
95.481
91.7897
81.7113
96.1397
98.7946
102.031
103.027
103.461
103.956
104.031
104.265
104.027
103.94
103.345
102.862
102.168
100.071
98.6666
91.1808
93.9152
97.04
98.5969
99.1581
99.6883
99.8439
100.059
99.8355
99.6479
98.9966
98.4068
97.2283
95.2216
93.5916
95.999
98.0353
100.585
101.807
102.191
102.347
102.441
102.512
102.445
102.314
102.055
101.675
100.9
99.3879
98.3213
93.5186
95.4682
97.8922
99.2754
99.7342
99.8953
99.9803
100.047
99.9797
99.8434
99.578
99.1542
98.2621
96.8446
95.7881
95.6711
97.4403
99.6743
101.045
101.523
101.625
101.678
101.711
101.675
101.564
101.368
100.959
100.103
98.8208
97.8609
94.424
96.0991
98.2536
99.6803
100.222
100.338
100.375
100.398
100.365
100.262
100.06
99.6172
98.7275
97.4936
96.5741
95.4953
97.0604
99.1152
100.551
101.139
101.262
101.283
101.292
101.265
101.175
100.977
100.515
99.6253
98.4494
97.5846
94.9402
96.4268
98.4181
99.8754
100.515
100.66
100.67
100.67
100.644
100.56
100.353
99.8646
98.963
97.8206
96.9941
95.4294
96.8367
98.7573
100.217
100.897
101.064
101.068
101.058
101.033
100.953
100.738
100.231
99.3288
98.2239
97.4373
95.2896
96.6328
98.4972
99.9622
100.682
100.872
100.873
100.854
100.829
100.751
100.525
99.9986
99.0942
98.0181
97.2637
95.4192
96.7031
98.5116
99.9733
100.725
100.939
100.941
100.915
100.889
100.81
100.573
100.032
99.1296
98.0821
97.3579
SCALARS v-velocity float 1
LOOKUP_TABLE default
-0.000389568
-0.000783031
-0.00127264
-0.00127982
-0.00129161
-0.000971652
-0.00065304
-0.000217241
0.000228636
0.000571836
0.000934546
0.000980147
0.0010447
0.000640996
0.000340225
0.000679346
0.00125195
0.00213645
0.00210227
0.00218517
0.00163655
0.00113563
0.000405946
-0.000342437
-0.000890656
-0.00152008
-0.00154531
-0.00171369
-0.000988586
-0.000588183
-0.000815705
-0.00187396
-0.00270257
-0.00269449
-0.00245192
-0.00176654
-0.00100778
-0.00012485
0.000767879
0.00152836
0.00223054
0.00249331
0.00253408
0.00176489
0.000772125
0.003233
0.00595734
0.00988249
0.00957875
0.0096991
0.0071092
0.0046622
0.00127036
-0.00218507
-0.00476638
-0.0076011
-0.00780264
-0.00851289
-0.00509654
-0.0029275
-0.00255938
-0.00610457
-0.00767713
-0.00717475
-0.00570437
-0.00390144
-0.00189834
-1.21784e-05
0.00190684
0.00383094
0.00559703
0.00698648
0.00742492
0.00591531
0.00244959
0.0147529
0.026958
0.0423764
0.0407846
0.0397912
0.0289634
0.0177149
0.00335641
-0.0112045
-0.0227236
-0.0341683
-0.035918
-0.0384818
-0.0244443
-0.0138041
-0.00597172
-0.0108046
-0.0062716
-0.0016566
0.0041401
0.00469062
0.00438408
0.000742645
-0.00270488
-0.00355718
-0.00326284
0.00189552
0.00580701
0.0102511
0.00544004
0.073435
0.119474
0.175289
0.171874
0.159049
0.11742
0.0662717
0.00823605
-0.050519
-0.101863
-0.144981
-0.159278
-0.164512
-0.111906
-0.0700676
0.0151853
0.0947429
0.167089
0.183312
0.189383
0.144988
0.086128
0.00477487
-0.0752756
-0.137084
-0.18219
-0.179291
-0.16671
-0.0968203
-0.0192223
0.377051
0.509322
0.693786
0.732958
0.603574
0.4691
0.239146
0.0182645
-0.205583
-0.433898
-0.5722
-0.703444
-0.667938
-0.486908
-0.360778
1.11445
1.72015
2.02087
1.91417
1.67614
1.20029
0.644556
0.0211921
-0.594353
-1.16203
-1.63512
-1.8873
-1.99748
-1.71711
-1.14538
-0.3145
3.35795
2.50711
3.06914
2.02418
1.69609
0.764903
0.0353897
-0.705257
-1.62832
-1.9712
-3.01131
-2.47815
-3.33692
0.352291
23.1015
19.9517
15.9937
12.9216
9.06191
6.13665
2.95633
0.0665528
-2.79561
-6.00066
-8.88039
-12.7846
-15.7686
-19.7788
-22.8727
25.1273
16.0649
13.1676
8.69116
6.62461
3.84362
2.04762
0.0752419
-1.90654
-3.6901
-6.48395
-8.52166
-13.0001
-15.8666
-25.2966
11.4079
7.10015
6.75472
4.15957
3.7279
2.00331
1.21557
0.0685499
-1.13126
-1.87206
-3.67117
-4.03986
-6.75305
-7.06396
-11.6397
-8.23289
-8.56835
-4.69701
-4.81263
-2.39006
-2.10682
-0.68547
0.126032
0.864614
2.36092
2.57356
5.07825
4.8996
8.85666
8.46356
-20.8601
-18.1312
-12.1373
-10.0842
-6.22921
-4.40838
-1.84628
0.15581
2.06915
4.74331
6.48523
10.4989
12.5122
18.7966
21.5355
-23.3208
-18.4084
-14.4351
-10.8757
-7.84824
-4.97704
-2.41918
0.188208
2.6157
5.37682
8.04755
11.3632
14.675
19.1747
23.9036
-2.47017
-0.486789
-2.21472
-1.30845
-1.73378
-0.899581
-0.613308
0.0442268
0.636994
0.973804
1.73676
1.35688
2.18541
0.42136
2.33106
-1.91076
-2.21779
-2.69804
-2.20503
-2.03834
-1.28595
-0.706291
0.0564855
0.772529
1.38811
2.09861
2.29147
2.73488
2.17647
1.88817
-0.198856
-0.271765
-0.372115
-0.206134
-0.336383
-0.168194
-0.130539
0.0105869
0.135735
0.185323
0.347461
0.22783
0.372366
0.226069
0.172989
-0.177244
-0.366191
-0.433419
-0.343346
-0.370184
-0.243259
-0.144483
0.011852
0.159161
0.264695
0.390544
0.365
0.429237
0.321721
0.153363
-0.03937
-0.106169
-0.077301
-0.022906
-0.0462349
-0.0305863
-0.0258587
0.00220175
0.0276489
0.0375834
0.0587832
0.0368345
0.0718457
0.0748628
0.0213409
-0.045208
-0.109616
-0.0905672
-0.0468093
-0.0488554
-0.0399019
-0.0278401
0.000340583
0.0277922
0.0445199
0.0586383
0.0541459
0.0776547
0.0765489
0.0271957
-0.0261777
-0.059496
-0.0312291
0.00523405
0.00776982
-9.08348e-05
-0.00492138
-0.000385811
0.00487983
0.00507593
0.00285833
0.0026378
0.021721
0.0345249
0.0124168
-0.0277178
-0.0602533
-0.0392821
-0.00580525
0.00282928
-0.00306273
-0.00670694
-0.00229915
0.00347635
0.00493078
0.00367917
0.00785241
0.0248657
0.0340531
0.0141796
-0.0214737
-0.0445047
-0.0248773
0.00488386
0.0144539
0.00707364
-0.000264357
-0.00131927
-0.000579547
-0.00272301
-0.0060304
-0.00127542
0.0137409
0.0234773
0.0105993
-0.0215773
-0.0454094
-0.0305521
-0.00307212
0.00880006
0.00420544
-0.00198615
-0.0028102
-0.00162184
-0.00271975
-0.00410344
0.00227297
0.0162674
0.0236696
0.010888
-0.0180712
-0.0375944
-0.0245874
0.000190672
0.0121347
0.00824443
0.00110312
-0.00192577
-0.00280135
-0.00496525
-0.00625219
5.08042e-05
0.0126175
0.0192354
0.00908229
-0.0186502
-0.0397159
-0.0291733
-0.00524522
0.00810319
0.00623932
7.79712e-05
-0.00274002
-0.00334309
-0.00467492
-0.00452733
0.00272493
0.0149773
0.0203368
0.0094547
SCALARS Mach float 1
LOOKUP_TABLE default
30.0599
30.0603
30.0609
30.0617
30.0622
30.0629
30.0631
30.0635
30.0633
30.0633
30.0627
30.0624
30.0616
30.0612
30.0608
29.5556
29.5555
29.5553
29.5551
29.5551
29.555
29.5551
29.5551
29.5551
29.5552
29.5553
29.5554
29.5556
29.5558
29.556
30.1188
30.12
30.1213
30.1236
30.1247
30.1265
30.1267
30.1278
30.127
30.1271
30.1255
30.1246
30.1226
30.1214
30.1202
29.4815
29.4802
29.4784
29.4768
29.4757
29.475
29.4747
29.4746
29.4747
29.4752
29.4759
29.477
29.4787
29.4804
29.4817
30.2008
30.2062
30.2118
30.2205
30.2245
30.2312
30.2318
30.2354
30.2324
30.2324
30.2262
30.2228
30.2145
30.2093
30.2042
29.3775
29.3713
29.3634
29.358
29.3547
29.3542
29.3533
29.3542
29.3535
29.3546
29.3552
29.3586
29.3637
29.3714
29.3774
30.2734
30.3017
30.3267
30.364
30.3796
30.4064
30.4089
30.4218
30.4103
30.409
30.3836
30.3691
30.3332
30.3095
30.2822
29.234
29.206
29.1835
29.1814
29.1833
29.197
29.2001
29.2095
29.2009
29.1987
29.1852
29.1843
29.1853
29.2066
29.2326
30.1535
30.3296
30.4244
30.5852
30.6509
30.7556
30.7716
30.8122
30.7745
30.7612
30.6598
30.5958
30.4391
30.3493
30.1794
28.8058
28.7446
28.8135
28.9408
29.0278
29.1617
29.211
29.2676
29.2142
29.1694
29.0358
28.9547
28.8249
28.753
28.7963
28.9462
30.0687
30.2871
31.0305
31.3366
31.6756
31.7882
31.8724
31.7934
31.6851
31.3551
31.0509
30.314
30.105
29.0294
24.3605
27.2084
28.2441
29.3331
29.9277
30.6267
30.8735
31.066
30.8829
30.6495
29.952
29.3754
28.2894
27.2967
24.3184
26.0603
28.0273
32.0861
33.2672
34.6179
34.7863
35.3814
35.1937
35.3893
34.8022
34.6441
33.3162
32.1441
28.0466
26.1811
48.7559
44.9304
45.1229
43.7262
43.8711
42.6848
42.9545
42.301
42.953
42.6625
43.8707
43.6643
45.0709
44.9509
49.6874
55.858
52.076
49.6919
47.552
46.7597
45.3727
45.2424
44.6418
45.2545
45.3851
46.7945
47.5485
49.7481
52.4457
56.8573
57.6862
54.4914
51.7478
49.7507
48.7852
47.6169
47.3442
46.8895
47.3693
47.6614
48.8576
49.8316
51.949
55.0317
58.6843
43.5998
44.9938
42.9285
42.9457
42.0323
42.0233
41.474
41.6152
41.4924
42.0332
42.0759
42.9353
43.0573
45.4653
45.3376
25.8632
32.4614
32.6707
34.7142
34.7181
35.9829
35.6787
36.282
35.6598
35.9484
34.634
34.5578
32.5146
32.9219
27.5332
18.976
24.8789
27.7117
29.7618
30.5042
31.5945
31.6964
32.1058
31.6697
31.5588
30.3702
29.5976
27.5824
25.4669
20.1556
28.0556
29.6368
31.6273
32.242
32.5135
32.8167
32.8628
33.008
32.8611
32.8075
32.4413
32.1388
31.7143
30.4133
29.5628
25.1467
26.6886
28.5048
29.4342
29.7725
30.0945
30.1897
30.321
30.1845
30.0698
29.6747
29.3196
28.6163
27.4423
26.505
27.9438
29.1493
30.6942
31.4485
31.6871
31.7831
31.8421
31.8864
31.8449
31.7625
31.602
31.3658
30.8885
29.9663
29.3243
26.4746
27.5965
29.0238
29.8547
30.1326
30.2306
30.2824
30.3232
30.282
30.1988
30.0373
29.7811
29.2454
28.4049
27.7862
27.7432
28.7848
30.1275
30.9668
31.2614
31.3245
31.3573
31.3775
31.3556
31.2867
31.1652
30.9131
30.3893
29.6135
29.0391
26.9992
27.9711
29.2465
30.1069
30.4366
30.5072
30.5295
30.544
30.5235
30.4608
30.3375
30.0684
29.5318
28.7958
28.2535
27.6365
28.555
29.7839
30.658
31.0192
31.0952
31.1077
31.1136
31.097
31.041
30.919
30.6359
30.094
29.3854
28.8698
27.2994
28.1658
29.3478
30.2282
30.6184
30.7072
30.7135
30.7132
30.6975
30.6456
30.5187
30.2215
29.6765
28.9931
28.5037
27.5978
28.4224
29.5675
30.4532
30.8702
30.9725
30.975
30.9686
30.9535
30.9041
30.7716
30.4614
29.9138
29.2498
28.7817
27.4989
28.2838
29.392
30.2778
30.7175
30.8339
30.8344
30.8227
30.8074
30.7595
30.6209
30.2999
29.7525
29.1078
28.6601
27.6005
28.3523
29.4288
30.3135
30.7735
30.9051
30.9062
30.8902
30.8738
30.8251
30.6798
30.3492
29.8024
29.1739
28.7433
