# vtk DataFile Version 3.0
Structured Grid Example
ASCII
DATASET STRUCTURED_GRID
DIMENSIONS 49 149 1
POINTS 7301 FLOAT
0.017097 0.0102067 0
0.017097 0.0306202 0
0.017097 0.0510336 0
0.017097 0.071447 0
0.0170969 0.0918602 0
0.0170969 0.112273 0
0.0170968 0.132687 0
0.0170967 0.153099 0
0.0170966 0.173512 0
0.0170965 0.193925 0
0.0170963 0.214337 0
0.0170962 0.234749 0
0.017096 0.255161 0
0.0170958 0.275573 0
0.0170956 0.295985 0
0.0170954 0.316396 0
0.0170952 0.336807 0
0.017095 0.357217 0
0.0170948 0.377628 0
0.0170946 0.398038 0
0.0170943 0.418447 0
0.0170941 0.438857 0
0.0170939 0.459266 0
0.0170936 0.479674 0
0.0170934 0.500082 0
0.0170931 0.52049 0
0.0170929 0.540898 0
0.0170926 0.561305 0
0.0170924 0.581712 0
0.0170922 0.602119 0
0.0170919 0.622525 0
0.0170917 0.642931 0
0.0170915 0.663337 0
0.0170913 0.683743 0
0.0170911 0.704148 0
0.0170909 0.724553 0
0.0170907 0.744957 0
0.0170906 0.765362 0
0.0170904 0.785766 0
0.0170903 0.80617 0
0.0170902 0.826573 0
0.0170901 0.846977 0
0.01709 0.86738 0
0.0170899 0.887784 0
0.0170898 0.908187 0
0.0170898 0.92859 0
0.0170897 0.948993 0
0.0170897 0.969396 0
0.0170897 0.989799 0
0.0512912 0.0102067 0
0.0512912 0.0306202 0
0.0512911 0.0510336 0
0.051291 0.071447 0
0.0512909 0.0918602 0
0.0512907 0.112273 0
0.0512904 0.132687 0
0.0512901 0.153099 0
0.0512898 0.173512 0
0.0512894 0.193925 0
0.051289 0.214337 0
0.0512885 0.234749 0
0.0512881 0.255161 0
0.0512875 0.275573 0
0.051287 0.295985 0
0.0512864 0.316396 0
0.0512857 0.336807 0
0.0512851 0.357217 0
0.0512844 0.377628 0
0.0512837 0.398038 0
0.051283 0.418447 0
0.0512823 0.438857 0
0.0512816 0.459266 0
0.0512809 0.479674 0
0.0512801 0.500082 0
0.0512794 0.52049 0
0.0512786 0.540898 0
0.0512779 0.561305 0
0.0512772 0.581712 0
0.0512765 0.602119 0
0.0512758 0.622525 0
0.0512752 0.642931 0
0.0512745 0.663337 0
0.0512739 0.683743 0
0.0512733 0.704148 0
0.0512727 0.724553 0
0.0512722 0.744957 0
0.0512717 0.765362 0
0.0512713 0.785766 0
0.0512708 0.80617 0
0.0512705 0.826573 0
0.0512701 0.846977 0
0.0512699 0.86738 0
0.0512696 0.887784 0
0.0512694 0.908187 0
0.0512693 0.92859 0
0.0512692 0.948993 0
0.0512691 0.969396 0
0.0512691 0.989799 0
0.0854854 0.0102068 0
0.0854854 0.0306203 0
0.0854853 0.0510338 0
0.0854852 0.0714472 0
0.0854849 0.0918605 0
0.0854846 0.112274 0
0.0854842 0.132687 0
0.0854837 0.1531 0
0.0854831 0.173513 0
0.0854825 0.193925 0
0.0854818 0.214338 0
0.085481 0.23475 0
0.0854802 0.255162 0
0.0854793 0.275574 0
0.0854784 0.295985 0
0.0854774 0.316397 0
0.0854763 0.336807 0
0.0854752 0.357218 0
0.0854741 0.377628 0
0.0854729 0.398038 0
0.0854718 0.418448 0
0.0854706 0.438857 0
0.0854693 0.459266 0
0.0854681 0.479675 0
0.0854669 0.500083 0
0.0854656 0.520491 0
0.0854644 0.540899 0
0.0854632 0.561306 0
0.085462 0.581713 0
0.0854608 0.60212 0
0.0854596 0.622526 0
0.0854585 0.642932 0
0.0854574 0.663338 0
0.0854564 0.683743 0
0.0854554 0.704148 0
0.0854545 0.724553 0
0.0854536 0.744958 0
0.0854527 0.765362 0
0.085452 0.785766 0
0.0854513 0.80617 0
0.0854507 0.826574 0
0.0854501 0.846977 0
0.0854496 0.867381 0
0.0854492 0.887784 0
0.0854489 0.908187 0
0.0854486 0.92859 0
0.0854485 0.948993 0
0.0854484 0.969396 0
0.0854484 0.989799 0
0.11968 0.0102068 0
0.11968 0.0306205 0
0.11968 0.0510341 0
0.11968 0.0714476 0
0.119679 0.0918611 0
0.119679 0.112274 0
0.119678 0.132688 0
0.119677 0.153101 0
0.119677 0.173514 0
0.119676 0.193926 0
0.119675 0.214339 0
0.119674 0.234751 0
0.119673 0.255163 0
0.119671 0.275575 0
0.11967 0.295987 0
0.119668 0.316398 0
0.119667 0.336809 0
0.119665 0.35722 0
0.119664 0.37763 0
0.119662 0.39804 0
0.119661 0.41845 0
0.119659 0.438859 0
0.119657 0.459268 0
0.119655 0.479677 0
0.119654 0.500085 0
0.119652 0.520493 0
0.11965 0.540901 0
0.119648 0.561308 0
0.119647 0.581715 0
0.119645 0.602122 0
0.119643 0.622528 0
0.119642 0.642934 0
0.11964 0.66334 0
0.119639 0.683745 0
0.119637 0.70415 0
0.119636 0.724555 0
0.119635 0.744959 0
0.119634 0.765363 0
0.119633 0.785767 0
0.119632 0.806171 0
0.119631 0.826575 0
0.11963 0.846978 0
0.119629 0.867381 0
0.119629 0.887785 0
0.119628 0.908188 0
0.119628 0.92859 0
0.119628 0.948993 0
0.119627 0.969396 0
0.119627 0.989799 0
0.153875 0.0102069 0
0.153875 0.0306207 0
0.153875 0.0510345 0
0.153874 0.0714483 0
0.153874 0.0918619 0
0.153873 0.112275 0
0.153872 0.132689 0
0.153872 0.153102 0
0.153871 0.173515 0
0.153869 0.193928 0
0.153868 0.214341 0
0.153867 0.234753 0
0.153865 0.255166 0
0.153863 0.275577 0
0.153862 0.295989 0
0.15386 0.316401 0
0.153858 0.336812 0
0.153856 0.357222 0
0.153854 0.377633 0
0.153852 0.398043 0
0.153849 0.418453 0
0.153847 0.438862 0
0.153845 0.459271 0
0.153843 0.47968 0
0.15384 0.500088 0
0.153838 0.520496 0
0.153836 0.540904 0
0.153834 0.561311 0
0.153831 0.581718 0
0.153829 0.602125 0
0.153827 0.622531 0
0.153825 0.642937 0
0.153823 0.663342 0
0.153821 0.683747 0
0.153819 0.704152 0
0.153817 0.724557 0
0.153816 0.744961 0
0.153814 0.765365 0
0.153813 0.785769 0
0.153811 0.806173 0
0.15381 0.826576 0
0.153809 0.84698 0
0.153808 0.867383 0
0.153808 0.887786 0
0.153807 0.908188 0
0.153807 0.928591 0
0.153806 0.948994 0
0.153806 0.969396 0
0.153806 0.989799 0
0.18807 0.010207 0
0.18807 0.0306211 0
0.18807 0.0510352 0
0.188069 0.0714491 0
0.188069 0.091863 0
0.188068 0.112277 0
0.188067 0.13269 0
0.188066 0.153104 0
0.188065 0.173517 0
0.188063 0.19393 0
0.188062 0.214343 0
0.18806 0.234756 0
0.188058 0.255168 0
0.188056 0.27558 0
0.188054 0.295992 0
0.188051 0.316404 0
0.188049 0.336815 0
0.188046 0.357226 0
0.188044 0.377637 0
0.188041 0.398047 0
0.188038 0.418457 0
0.188036 0.438866 0
0.188033 0.459275 0
0.18803 0.479684 0
0.188027 0.500092 0
0.188024 0.5205 0
0.188021 0.540908 0
0.188019 0.561315 0
0.188016 0.581722 0
0.188013 0.602128 0
0.18801 0.622534 0
0.188008 0.64294 0
0.188005 0.663346 0
0.188003 0.683751 0
0.188001 0.704155 0
0.187998 0.72456 0
0.187996 0.744964 0
0.187994 0.765368 0
0.187993 0.785772 0
0.187991 0.806175 0
0.18799 0.826578 0
0.187988 0.846981 0
0.187987 0.867384 0
0.187986 0.887787 0
0.187986 0.908189 0
0.187985 0.928592 0
0.187985 0.948994 0
0.187984 0.969397 0
0.187984 0.989799 0
0.222266 0.0102072 0
0.222266 0.0306216 0
0.222266 0.051036 0
0.222265 0.0714502 0
0.222264 0.0918644 0
0.222263 0.112279 0
0.222262 0.132692 0
0.222261 0.153106 0
0.222259 0.17352 0
0.222258 0.193933 0
0.222256 0.214346 0
0.222253 0.234759 0
0.222251 0.255172 0
0.222249 0.275584 0
0.222246 0.295996 0
0.222243 0.316408 0
0.22224 0.336819 0
0.222237 0.35723 0
0.222234 0.377641 0
0.222231 0.398051 0
0.222228 0.418461 0
0.222224 0.438871 0
0.222221 0.45928 0
0.222217 0.479689 0
0.222214 0.500097 0
0.22221 0.520505 0
0.222207 0.540913 0
0.222204 0.56132 0
0.2222 0.581727 0
0.222197 0.602133 0
0.222194 0.622539 0
0.22219 0.642945 0
0.222187 0.66335 0
0.222185 0.683755 0
0.222182 0.704159 0
0.222179 0.724564 0
0.222177 0.744968 0
0.222174 0.765371 0
0.222172 0.785775 0
0.22217 0.806178 0
0.222168 0.826581 0
0.222167 0.846984 0
0.222166 0.867386 0
0.222164 0.887789 0
0.222164 0.908191 0
0.222163 0.928593 0
0.222162 0.948995 0
0.222162 0.969397 0
0.222162 0.989799 0
0.256462 0.0102074 0
0.256462 0.0306222 0
0.256462 0.0510369 0
0.256461 0.0714516 0
0.256461 0.0918662 0
0.256459 0.112281 0
0.256458 0.132695 0
0.256457 0.153109 0
0.256455 0.173523 0
0.256453 0.193937 0
0.25645 0.21435 0
0.256448 0.234763 0
0.256445 0.255176 0
0.256442 0.275589 0
0.256439 0.296001 0
0.256435 0.316413 0
0.256432 0.336825 0
0.256428 0.357236 0
0.256425 0.377647 0
0.256421 0.398057 0
0.256417 0.418467 0
0.256413 0.438877 0
0.256409 0.459286 0
0.256405 0.479695 0
0.256401 0.500103 0
0.256396 0.520511 0
0.256392 0.540919 0
0.256388 0.561326 0
0.256384 0.581732 0
0.25638 0.602139 0
0.256377 0.622545 0
0.256373 0.64295 0
0.256369 0.663355 0
0.256366 0.68376 0
0.256363 0.704164 0
0.256359 0.724568 0
0.256356 0.744972 0
0.256354 0.765375 0
0.256351 0.785779 0
0.256349 0.806181 0
0.256347 0.826584 0
0.256345 0.846986 0
0.256343 0.867389 0
0.256342 0.887791 0
0.256341 0.908193 0
0.25634 0.928594 0
0.25634 0.948996 0
0.256339 0.969398 0
0.256339 0.989799 0
0.290659 0.0102076 0
0.290659 0.0306229 0
0.290659 0.0510381 0
0.290658 0.0714533 0
0.290658 0.0918683 0
0.290656 0.112283 0
0.290655 0.132698 0
0.290653 0.153113 0
0.290651 0.173527 0
0.290648 0.193941 0
0.290645 0.214355 0
0.290642 0.234768 0
0.290639 0.255182 0
0.290636 0.275595 0
0.290632 0.296007 0
0.290628 0.316419 0
0.290624 0.336831 0
0.29062 0.357243 0
0.290615 0.377654 0
0.290611 0.398064 0
0.290606 0.418474 0
0.290602 0.438884 0
0.290597 0.459293 0
0.290592 0.479702 0
0.290587 0.500111 0
0.290582 0.520518 0
0.290578 0.540926 0
0.290573 0.561333 0
0.290568 0.581739 0
0.290564 0.602146 0
0.290559 0.622551 0
0.290555 0.642957 0
0.290551 0.663361 0
0.290547 0.683766 0
0.290543 0.70417 0
0.290539 0.724574 0
0.290536 0.744977 0
0.290532 0.76538 0
0.29053 0.785783 0
0.290527 0.806186 0
0.290524 0.826588 0
0.290522 0.84699 0
0.29052 0.867392 0
0.290519 0.887793 0
0.290518 0.908195 0
0.290517 0.928596 0
0.290516 0.948997 0
0.290516 0.969398 0
0.290516 0.989799 0
0.324858 0.0102079 0
0.324858 0.0306237 0
0.324857 0.0510395 0
0.324856 0.0714552 0
0.324855 0.0918707 0
0.324854 0.112286 0
0.324852 0.132701 0
0.32485 0.153117 0
0.324847 0.173531 0
0.324844 0.193946 0
0.324841 0.21436 0
0.324838 0.234774 0
0.324834 0.255188 0
0.32483 0.275601 0
0.324826 0.296014 0
0.324821 0.316427 0
0.324817 0.336839 0
0.324812 0.35725 0
0.324807 0.377662 0
0.324801 0.398072 0
0.324796 0.418483 0
0.324791 0.438892 0
0.324785 0.459302 0
0.32478 0.479711 0
0.324774 0.500119 0
0.324768 0.520527 0
0.324763 0.540934 0
0.324757 0.561341 0
0.324752 0.581748 0
0.324747 0.602154 0
0.324742 0.622559 0
0.324736 0.642964 0
0.324732 0.663369 0
0.324727 0.683773 0
0.324723 0.704177 0
0.324718 0.72458 0
0.324714 0.744983 0
0.324711 0.765386 0
0.324707 0.785788 0
0.324704 0.80619 0
0.324701 0.826592 0
0.324699 0.846994 0
0.324697 0.867395 0
0.324695 0.887796 0
0.324693 0.908197 0
0.324692 0.928598 0
0.324691 0.948999 0
0.324691 0.969399 0
[...]
POINT_DATA 7301
SCALARS pressure float 1
LOOKUP_TABLE default
84584.5
84584.7
84585
84585.5
84586.1
84587
84588.3
84589.9
84591.9
84594.4
84597.3
84600.6
84604.3
84608.4
84612.7
84617.1
84621.6
84625.9
84630
84633.7
84637
84639.6
84641.7
84643
84643.7
84643.8
84643.3
84642.4
84641.2
84639.7
84638.2
84636.9
84635.7
84634.9
84634.6
84634.7
84635.4
84636.6
84638.3
84640.3
84642.7
84645.3
84648
84650.5
84652.9
84655
84656.6
84657.8
84658.4
84550.6
84550.8
84551.1
84551.6
84552.2
84553.2
84554.6
84556.3
84558.5
84561.1
84564.3
84567.9
84572
84576.5
84581.3
84586.3
84591.3
84596.3
84601
84605.3
84609.2
84612.4
84614.9
84616.7
84617.7
84617.9
84617.6
84616.7
84615.3
84613.7
84612
84610.3
84608.7
84607.5
84606.7
84606.4
84606.6
84607.3
84608.4
84610
84611.9
84614
84616.3
84618.5
84620.5
84622.4
84623.8
84624.8
84625.2
84567.9
84568.4
84569.2
84570.5
84572.1
84574.2
84576.6
84579.5
84582.9
84586.6
84590.7
84595.2
84599.9
84605
84610.2
84615.6
84621
84626.3
84631.5
84636.5
84641.2
84645.5
84649.4
84652.7
84655.4
84657.6
84659.1
84660.1
84660.5
84660.3
84659.8
84658.9
84657.7
84656.2
84654.7
84653.1
84651.5
84649.9
84648.4
84647
84645.8
84644.6
84643.6
84642.7
84641.9
84641.4
84640.8
84640.7
84640.2
84543.4
84544.1
84545.6
84547.8
84550.5
84553.8
84557.3
84561.3
84565.3
84569.4
84573.5
84577.4
84581.2
84584.8
84588.3
84591.5
84594.7
84597.8
84601
84604.2
84607.6
84611.2
84615
84619
84623.2
84627.3
84631.4
84635.3
84638.8
84641.8
84644.2
84645.9
84646.7
84646.6
84645.7
84643.9
84641.3
84637.9
84634
84629.6
84624.9
84620.1
84615.2
84610.8
84606.6
84603.3
84600.2
84598.6
84597.2
84553.2
84554.2
84556.3
84559.4
84563.2
84567.6
84572.4
84577.3
84582.1
84586.7
84590.9
84594.5
84597.6
84600
84601.9
84603.4
84604.7
84605.8
84607.2
84608.9
84611.2
84614.2
84618
84622.6
84627.9
84633.9
84640.2
84646.7
84653
84658.7
84663.7
84667.5
84669.9
84670.9
84670.2
84667.8
84663.9
84658.5
84651.9
84644.3
84636
84627.4
84618.7
84610.7
84602.9
84596.8
84591.4
84588.3
84586
84550.7
84551.9
84554.8
84558.6
84563.5
84568.9
84574.5
84580.1
84585.3
84589.8
84593.3
84595.7
84597
84597.2
84596.4
84594.8
84592.9
84591
84589.4
84588.5
84588.8
84590.5
84593.7
84598.6
84605.1
84612.9
84621.7
84631.2
84640.8
84650
84658.3
84665.1
84670
84672.7
84672.9
84670.5
84665.6
84658.4
84649
84638.1
84625.9
84613.3
84600.3
84588.2
84576.7
84567.4
84559.3
84554.5
84551.3
84565
84566.3
84569.8
84574.2
84579.8
84585.9
84592.2
84598.2
84603.4
84607.4
84610.1
84611.1
84610.5
84608.3
84604.7
84600.2
84595.2
84590.1
84585.7
84582.3
84580.5
84580.7
84583.2
84588
84595.2
84604.3
84615.2
84627.1
84639.5
84651.7
84662.9
84672.3
84679.5
84683.8
84684.9
84682.7
84677.2
84668.5
84657
84643.3
84627.8
84611.7
84595.1
84579.6
84564.7
84552.7
84542.4
84536
84532.1
84577.9
84579.2
84582.9
84587.5
84593.4
84599.6
84605.9
84611.5
84616.1
84619.1
84620.4
84619.5
84616.7
84612
84605.7
84598.2
84590.2
84582.3
84575.2
84569.5
84565.9
84564.7
84566.4
84571
84578.5
84588.6
84600.9
84614.7
84629.4
84643.9
84657.5
84669.3
84678.4
84684.3
84686.5
84684.8
84678.9
84669.4
84656.3
84640.7
84622.7
84603.9
84584.4
84566.2
84548.7
84534.4
84522.4
84514.6
84510.3
84599
84600
84603.8
84608
84613.6
84619.2
84624.8
84629.4
84632.8
84634.3
84633.7
84630.9
84625.8
84618.7
84609.9
84600
84589.6
84579.4
84570.2
84562.7
84557.5
84555.2
84556.1
84560.3
84567.8
84578.3
84591.4
84606.2
84622.2
84638.2
84653.4
84666.7
84677.4
84684.6
84687.8
84686.8
84681.2
84671.6
84657.9
84641.4
84622.1
84602
84580.8
84561
84542
84526.3
84513.3
84504.6
84500.1
84621.2
84621.8
84625.1
84628.4
84633
84637.1
84641.1
84643.9
84645.3
84644.7
84642
84637.1
84629.9
84620.8
84610.2
84598.6
84586.7
84575.2
84564.8
84556.3
84550.3
84547.3
84547.6
84551.3
84558.4
84568.6
84581.4
84596.2
84612.2
84628.4
84643.9
84657.8
84669.1
84677
84681
84680.7
84675.9
84666.9
84653.7
84637.6
84618.6
84598.5
84577.2
84557.2
84538.1
84522
84508.9
84499.9
84495.5
84647.1
84647.1
84649.5
84651.2
84653.9
84655.7
84657.3
84657.4
84656.2
84653.1
84648.1
84641.1
84632.2
84621.7
84610.1
84597.8
84585.4
84573.7
84563.3
84554.7
84548.6
84545.3
84545.1
84548.1
84554.4
84563.5
84575.1
84588.6
84603.3
84618.3
84632.8
84645.9
84656.7
84664.6
84668.9
84669.4
84665.6
84658
84646.5
84632.1
84614.8
84596.4
84576.9
84558.2
84540.4
84525.3
84513.1
84504.3
84500.5
84674.6
84673.7
84674.7
84674.1
84674.2
84673
84671.3
84668.1
84663.8
84657.9
84650.5
84641.6
84631.5
84620.4
84608.7
84596.7
84585.2
84574.3
84564.8
84557.1
84551.5
84548.3
84547.8
84550
84554.8
84562
84571.2
84582
84593.8
84606
84617.8
84628.7
84637.7
84644.6
84648.6
84649.7
84647.2
84641.7
84632.7
84621.4
84607.4
84592.4
84576.3
84560.7
84545.8
84532.8
84522.7
84514.9
84512
84704
84702
84701.2
84697.9
84694.8
84689.8
84684.3
84677.3
84669.6
84660.7
84651
84640.7
84629.9
84618.9
84608
84597.4
84587.6
84578.7
84571.1
84564.8
84560.3
84557.5
84556.7
84557.6
84560.3
84564.7
84570.4
84577.1
84584.6
84592.4
84600.1
84607.3
84613.4
84618.3
84621.4
84622.7
84621.7
84618.7
84613.2
84606.1
84596.9
84587
84575.9
84565
84554.6
84545.1
84538.1
84532.1
84530.4
84734.9
84731.9
84729
84722.6
84715.9
84706.7
84697.1
84686.1
84674.8
84663
84651.3
84639.8
84628.8
84618.6
84609.2
84600.8
84593.5
84587.1
84581.9
84577.7
84574.4
84572.1
84570.6
84569.8
84569.8
84570.3
84571.4
84572.8
84574.7
84576.8
84579
84581.4
84583.5
84585.7
84587.3
84588.7
84589.1
84589.1
84587.8
84585.9
84582.7
84579.1
84574.7
84569.9
84565.5
84560.7
84557.8
84554.3
84554.2
84766.6
84762.4
84757.3
84747.7
84737.4
84724
84710.3
84695.2
84680.5
84666
84652.5
84640.2
84629.5
84620.5
84613.1
84607.2
84602.7
84599.3
84596.6
84594.4
84592.4
84590.2
84587.7
84584.7
84581.2
84577.2
84572.7
84568
84563.3
84558.8
84554.7
84551.5
84549.1
84548
84547.9
84549.2
84551.3
84554.5
84557.9
84562.1
84565.9
84569.8
84573.2
84575.9
84578.5
84579.6
84581.7
84581.2
84583.1
84798.5
84793.2
84786.1
84773.5
84759.7
84742.4
84724.8
84706.1
84688.4
84671.4
84656.6
84643.7
84633.5
84625.7
84620.3
84617
84615.2
84614.4
84614.1
84613.6
84612.3
84609.8
84605.8
84600.1
84592.5
84583.3
84572.8
84561.4
84549.7
84538.2
84527.6
84518.6
84511.5
84507.1
84505.2
84506.5
84510.4
84517.1
84525.7
84536.3
84547.9
84559.9
84572
84583
84593.6
84601.4
84609.1
84612.3
84616.3
84828.2
84822
84813
84798
84781.2
84760.6
84739.8
84718
84697.8
84678.9
84662.9
84649.8
84640
84633.4
84629.7
84628.4
84628.9
84630.2
84631.6
84632.2
84631.1
84627.7
84621.7
84612.7
84600.8
84586.3
84569.6
84551.6
84532.9
84514.7
84497.8
84483.4
84471.9
84464.6
84461.3
84462.9
84468.8
84479.2
84493.2
84510.5
84530
84550.5
84571.7
84591.4
84610.5
84625.3
84639
84646.2
84652.4
84854.6
84848
84837.6
84820.7
84801.7
84778.7
84755.6
84731.6
84709.6
84689.2
84672.4
84658.9
84649.5
84643.6
84641.1
84641.2
84643.1
84645.6
84647.8
84648.5
84646.9
84642
84633.5
84621
84604.7
84585
84562.6
84538.4
84513.6
84489.4
84467.1
84448
84433
84423.3
84419.1
84421.3
84429.4
84443.6
84462.9
84486.7
84513.8
84542.7
84572.8
84601
84628.4
84650.3
84670
84681.2
84689.4
84874.6
84867.8
84856.5
84838.8
84818.5
84794.2
84769.9
84744.6
84721.5
84700.4
84683.1
84669.3
84659.9
84654.3
84652.2
84652.7
84655
84657.7
84659.7
84659.7
84656.7
84649.9
84638.6
84622.7
84602.4
84578.1
84550.8
84521.5
84491.7
84462.9
84436.3
84413.8
84396.2
84385
84380.6
84383.7
84394.1
84411.8
84436.1
84465.7
84499.9
84536.2
84574.3
84610.4
84645.3
84673.8
84698.9
84713.9
84723.9
84888.2
84881.7
84870.2
84852.5
84832.1
84807.8
84783.3
84757.8
84734.7
84713.3
84695.8
84681.8
84672.1
84666.1
84663.6
84663.6
84665
84666.7
84667.4
84665.7
84660.7
84651.5
84637.4
84618.4
84594.6
84566.8
84535.7
84502.8
84469.5
84437.5
84408.3
84383.6
84364.6
84352.7
84348.5
84352.8
84365.3
84386.1
84414.4
84448.9
84488.8
84531.2
84575.9
84618.2
84659.4
84693.3
84722.6
84741
84752.3
84892.9
84887.1
84876
84859.5
84840.1
84817
84793.6
84769.2
84746.8
84725.9
84708.6
84694.4
84684.2
84677.2
84673.5
84671.8
84671.4
84671
84669.3
84665.2
84657.6
84645.7
84629
84607.3
84581.1
84550.8
84517.5
84482.7
84447.7
84414.2
84383.9
84358.5
84339.2
84327.5
84323.9
84329.4
84343.8
84366.8
84398.1
84435.9
84479.8
84526.3
84575.4
84622.1
84667.4
84705.1
84737.3
84758
84770
84892.1
84887.2
84877.2
84862.7
84845.4
84824.7
84803.7
84781.3
84760.7
84740.9
84724.2
84709.7
84698.7
84690.2
84684.4
84680
84676.6
84672.9
84667.9
84660.4
84649.7
84634.9
84615.7
84592.1
84564.2
84532.9
84498.9
84463.8
84428.7
84395.5
84365.7
84340.8
84322.3
84311.3
84308.8
84315.2
84330.8
84355.2
84388
84427.4
84473.1
84521.3
84572.4
84620.9
84667.8
84707.1
84740.3
84762.3
84774.1
84884.6
84880.9
84872.7
84861
84846.7
84829.5
84811.7
84792.5
84774.4
84756.3
84740.5
84726
84713.9
84703.4
84694.7
84686.9
84679.5
84671.5
84662.3
84650.8
84636.5
84618.8
84597.4
84572.3
84543.9
84512.7
84479.5
84445.7
84412.3
84381
84353.1
84330.1
84313.3
84303.8
84302.4
84309.7
84325.9
84350.4
84383.3
84422.3
84467.5
84515
84565.2
84612.8
84658.6
84697.2
84729.3
84751.2
84762.1
84876.9
84874.6
84868.5
84860.1
84849.5
84836.6
84822.8
84807.4
84792.3
84776.4
84761.7
84747
84733.6
84720.5
84708.3
84696.1
84683.8
84670.6
84656.3
84640.1
84621.8
84600.9
84577.5
84551.5
84523.2
84493.2
84462
84430.9
84400.6
84372.5
84347.8
84327.8
84313.4
84305.9
84305.9
84313.7
84329.9
84353.5
84384.8
84421.5
84463.8
84508
84554.4
84598.4
84640.3
84675.9
84704.8
84725.2
84734.5
84868.2
84867.2
84863.5
84858.7
84852.1
84843.8
84834.5
84823.2
84811.5
84798
84784.4
84769.5
84754.5
84738.4
84722.2
84704.9
84687.1
84668.1
84648.2
84626.9
84604.3
84580.4
84555.1
84528.6
84501.1
84473.1
84445.1
84417.8
84391.8
84368.2
84347.8
84331.7
84320.7
84315.6
84317.2
84325.4
84340.9
84362.6
84391
84423.6
84460.9
84499.4
84539.6
84577.4
84613
84643.5
84667.4
84685.2
84692.2
84866.4
84866.6
84865.2
84863.9
84861.3
84857.5
84852.4
84845.2
84836.6
84825.4
84812.6
84797.1
84780.2
84760.7
84739.9
84717.2
84693.3
84668.2
84642.3
84615.7
84588.7
84561.6
84534.5
84507.8
84481.5
84456.1
84431.8
84409
84388.2
84369.8
84354.6
84343.2
84336.1
84333.8
84337
84345.4
84359.7
84378.5
84402.6
84429.5
84459.9
84490.7
84522.4
84552
84579.2
84602.7
84620.3
84634.3
84638.6
84867.6
84868.9
84869.7
84871.4
84872.3
84872.5
84871.2
84867.5
84861.6
84852.1
84839.8
84823.5
84804.2
84781.2
84755.8
84727.6
84697.8
84666.6
84634.9
84603.3
84572.2
84542.3
84513.9
84487.3
84462.8
84440.4
84420.3
84402.7
84387.5
84375.1
84365.7
84359.5
84356.8
84357.7
84362.6
84371
84383.5
84398.8
84417.5
84437.4
84459.4
84480.9
84502.4
84522.2
84539.5
84554.9
84565.1
84574.7
84576.1
84879.6
84881.7
84884.2
84888.2
84891.9
84895.1
84896.6
84895.4
84891.2
84882.6
84870.1
84852.3
84830.4
84803.8
84773.7
84740.2
84704.9
84668.1
84631.2
84594.9
84560.4
84528
84498.6
84472.5
84449.7
84430.6
84414.8
84402.5
84393.2
84386.9
84383.4
84382.5
84384.3
84388.2
84394.7
84402.7
84412.9
84423.8
84436.1
84448
84460.3
84471.3
84481.5
84490.4
84497
84503.5
84506
84510.7
84509.1
84893.4
84895.9
84899.6
84905
84910.4
84915.4
84918.6
84918.7
84915.3
84906.7
84893.4
84873.9
84849.4
84819.4
84785.3
84747.4
84707.5
84666.2
84625.3
84585.6
84548.5
84514.7
84485
84459.9
84439.4
84423.7
84412.5
84405.5
84402.2
84402
84404.5
84408.9
84415
84421.9
84429.6
84436.9
84444.2
84450.1
84455.3
84458.5
84460.4
84460.4
84458.7
84456.4
84452
84449.5
84444.2
84444
84439.6
84917.1
84919.6
84923.7
84929.6
84935.5
84940.9
84944.2
84944.3
84940.3
84930.8
84915.8
84894.3
84867.3
84834.2
84796.8
84755.4
84712
84667.4
84623.6
84581.7
84543
84508.5
84479.2
84455.4
84437.3
84425
84418.2
84416.1
84418.3
84423.7
84431.6
84440.8
84450.6
84459.8
84468
84473.9
84477.7
84478
84475.6
84469.5
84460.7
84449.5
84435.9
84422.6
84407.6
84396.4
84383.8
84378.7
84371.7
84936.3
84938.6
84942.4
84947.7
84952.9
84957.4
84959.7
84958.6
84953.1
84941.9
84925.1
84901.7
84872.5
84837.3
84797.8
84754.4
84709.2
84663.1
84618.1
84575.4
84536.6
84502.7
84474.6
84452.9
84437.7
84428.9
84426.3
84429
84436.3
84446.8
84459.4
84472.7
84485.7
84496.5
84504.7
84508.7
84508.5
84502.9
84492.7
84477.5
84458.3
84436.4
84411.8
84388.2
84363.6
84344.4
84325.3
84315.9
84306.8
84962.8
84964.4
84967.3
84971
84974.4
84976.8
84976.7
84973.1
84965.2
84951.7
84932.7
84907.3
84876.4
84839.8
84799.1
84754.9
84709.1
84662.7
84617.9
84575.6
84537.7
84505
84478.7
84459.1
84446.7
84441.1
84442.1
84448.8
84460.1
84474.5
84490.7
84506.9
84521.7
84533
84540.2
84541.5
84536.7
84525.1
84507.2
84483.4
84454.5
84423
84388.5
84356
84323.1
84297.2
84272.7
84259.5
84248.8
84977.5
84978.3
84979.8
84981.4
84982.2
84981.6
84978.5
84971.9
84961.2
84945.4
84924.4
84897.6
84865.9
84829.1
84788.7
84745.2
84700.6
84655.6
84612.5
84572.1
84536.3
84506
84482.2
84465.3
84455.8
84453.4
84457.7
84467.6
84482.1
84499.4
84518.1
84535.9
84551.4
84562.3
84567.6
84565.7
84556.4
84539
84514.1
84482.9
84445.8
84406.4
84364
84324.5
84285.1
84253.9
84225.5
84209.4
84197.5
84999.6
84999.4
84999.1
84997.9
84995.6
84991.4
84984.6
84974.6
84960.7
84942.3
84919.5
84891.6
84859.6
84823.2
84783.9
84742
84699.3
84656.6
84615.9
84578.1
84544.8
84517
84495.6
84481.2
84474
84473.8
84480.1
84491.9
84507.9
84526.2
84545.4
84563
84577.4
84586.3
84588.6
84582.8
84568.6
84545.8
84514.8
84477.5
84434
84388.7
84340.6
84296.1
84252.4
84217.7
84186.7
84168.6
84156.2
85004.5
85003.3
85001
84997.2
84991.7
84984
84973.8
84960.5
84944
84923.8
84899.9
84872
84840.7
84806
84769.1
84730.2
84690.9
84651.8
84614.8
84580.5
84550.7
84526
84507.5
84495.6
84490.6
84492.1
84499.6
84512.1
84528.2
84546.1
84564
84579.7
84591.6
84597.3
84595.9
84585.9
84567.2
84539.9
84504.2
84462.7
84415.2
84366.4
84315.2
84268.2
84222.5
84186.2
84154.2
84135.2
84122.8
85020.9
85018.7
85014.6
85008.2
84999.5
84988.5
84974.9
84958.7
84939.8
84917.9
84893.2
84865.6
84835.5
84802.8
84768.6
84732.9
84697.3
84662
84628.7
84598
84571.4
84549.4
84533.1
84522.7
84518.5
84520.1
84527
84537.9
84551.8
84566.7
84581
84592.4
84599.5
84600.4
84593.9
84579.2
84555.9
84524.8
84485.8
84441.8
84392.4
84342.4
84290.5
84243.4
84197.8
84161.6
84130.2
84111.1
84099.3
85014.9
85012
85006.4
84998
84987.1
84973.6
84957.8
84939.6
84919.5
84897.1
84872.9
84846.6
84818.9
84789.5
84759.2
84728.1
84697.2
84666.9
84638.4
84612.1
84589.4
84570.6
84556.6
84547.6
84543.7
84544.6
84549.6
84557.7
84567.7
84577.8
84586.6
84592.2
84593.3
84588.2
84576.2
84556.9
84529.7
84495.9
84455.2
84410.8
84361.7
84313.1
84263
84217.9
84174.6
84140.3
84110.8
84092.6
84081.8
85028
85024.6
85017.9
85007.9
84995.2
84979.8
84962.2
84942.7
84921.6
84899
84875.4
84850.6
84825.2
84798.9
84772.3
84745.4
84719
84693.1
84668.9
84646.4
84626.8
84610.2
84597.3
84588.1
84582.8
84580.8
84581.8
84584.4
84587.9
84590.7
84591.5
84589
84582.1
84569.7
84551.3
84526.8
84495.9
84460.1
84418.9
84375.3
84328.4
84282.7
84236.3
84194.9
84155.5
84124.3
84097.9
84081.3
84071.9
85012
85008.3
85001.1
84990.5
84977.2
84961.1
84943.3
84923.8
84903.3
84882
84860.3
84838.2
84816.3
84794.2
84772.5
84750.9
84730.1
84709.7
84690.7
84672.9
84657
84643
84631.5
84622.2
84615.1
84609.7
84605.7
84601.9
84597.8
84592.1
84584.1
84572.7
84557.2
84537.4
84512.7
84483.8
84450.1
84413.4
84373
84332
84288.8
84247.8
84206.7
84170.5
84136.5
84109.6
84087.1
84072.7
84064.9
85026.1
85022.4
85014.9
85004.1
84990.5
84974.3
84956.4
84937.1
84917.2
84896.9
84876.7
84856.8
84837.6
84818.8
84800.9
84783.5
84766.9
84750.9
84735.8
84721.2
84707.7
84694.9
84683
84671.7
84660.9
84650
84638.8
84626.5
84612.7
84596.7
84578.1
84556.4
84531.5
84503.5
84472.3
84438.8
84402.5
84365.5
84326.5
84288.7
84250
84214.5
84179.5
84149.3
84121.2
84099.2
84081.1
84069.3
84063.3
85001.5
84998
84991
84980.8
84968.1
84952.9
84936.5
84918.8
84901
84883
84865.9
84849.3
84834
84819.6
84806.6
84794.3
84783.1
84772.2
84761.9
84751.4
84741
84729.9
84718.3
84705.3
84691.1
84674.9
84656.8
84636.1
84612.9
84586.9
84558.3
84527.1
84493.6
84458.5
84421.8
84385
84347.3
84311
84274.7
84241
84207.9
84178.7
84150.6
84127.1
84105.6
84089
84075.6
84066.8
84062.6
85024.4
85021
85014.4
85004.7
84992.6
84978.2
84962.6
84946
84929.3
84912.7
84897.1
84882.4
84869.3
84857.4
84847
84837.7
84829.3
84821.2
84813.2
84804.4
84794.6
84782.8
84769
84752.2
84732.4
84709
84682.2
84651.7
84618
84581.2
84541.9
84500.9
84458.8
84416.7
84374.8
84334.8
84296
84260.6
84227
84197.6
84170.1
84147
84125.9
84109
84094.1
84083
84074.3
84068.5
84066
84996.8
84993.7
84988
84979.3
84968.9
84956.1
84942.8
84928.4
84914.5
84900.6
84888.2
84876.7
84867.2
84859
84852.7
84847.2
84842.9
84838.4
84833.6
84827.2
84818.8
84807.1
84791.8
84772.1
84747.7
84718.3
84684.2
84645.4
84602.8
84557.2
84509.3
84460.7
84411.9
84364.8
84319.6
84278
84239.6
84206.2
84176.2
84151.6
84130.2
84113.8
84099.7
84089.7
84081.4
84075.8
84071.9
84069.1
84068.4
85043.1
85039.8
85034.5
85026.1
85016.2
85004
84991.2
84977.4
84964.1
84950.8
84939
84928.2
84919.3
84911.7
84905.9
84900.9
84896.6
84891.9
84886.3
84878.2
84867.3
84852
84832.1
84806.3
84774.8
84737.2
84694.1
84646
84593.9
84539
84482.6
84426.4
84371.4
84319.6
84271.1
84228.1
84189.9
84158.2
84131.5
84111.3
84095.4
84084.9
84077.3
84073.5
84071.3
84070.8
84071.2
84071.4
84072.1
85021.9
85018.5
85014.3
85006.4
84998.1
84987
84976.4
84964.2
84953.5
84942.3
84933.4
84924.9
84919
84913.8
84910.6
84907.6
84905.2
84901.6
84896.6
84888.1
84876
84858.4
84835.1
84804.9
84768.1
84724.5
84674.9
84620.1
84561.3
84500.2
84438.2
84377.3
84318.6
84264.3
84214.7
84171.8
84135
84105.9
84083
84067.4
84056.9
84052.1
84050.7
84052.7
84056.3
84060.6
84064.9
84067.9
84069.9
85110.7
85106.7
85102.4
85093.8
85084.8
85073
85061.2
85048.1
85035.9
85023.6
85012.9
85002.9
84994.8
84987.3
84981.3
84975.2
84969
84961
84951
84936.8
84918.2
84893.5
84862.5
84824.2
84779
84726.9
84668.9
84606
84539.8
84471.9
84404
84338.3
84275.8
84218.8
84167.7
84124.5
84088.3
84060.9
84040.6
84028.3
84021.8
84021.4
84024.7
84031.2
84039.2
84047.3
84054.7
84060
84062.9
85103.9
85099.1
85095.6
85086.1
85078.1
85065.4
85055.2
85041.6
85031.2
85019
85010.2
85000.6
84994.1
84986.9
84981.8
84975.2
84968.7
84959
84947
84929.8
84907.8
84878.8
84843.2
84799.9
84749.8
84692.7
84630.2
84563
84493.1
84422.2
84351.9
84284.4
84220.9
84163.6
84112.8
84070.5
84035.9
84010.6
83992.9
83983.5
83980.4
83983.5
83990.5
84000.5
84011.8
84022.8
84032.5
84039.6
84043.1
85256.1
85249.8
85245
85233
85221.8
85205.7
85190.8
85172.9
85157
85139.6
85124.7
85109.1
85095.8
85081.6
85068.8
85054.2
85039.1
85020.4
84999
84972
84940.2
84901.4
84856.3
84804
84745.4
84680.7
84611.3
84538.3
84463.5
84388.5
84315.1
84245.2
84180
84121.5
84070.1
84027.5
83993.1
83968.2
83951.3
83942.9
83941.1
83945.4
83954
83965.4
83978
83990.4
84000.9
84008.9
84012.4
85270.5
85261.6
85257.2
85240.1
85228.7
85206.6
85191.3
85167.9
85151.7
85129.8
85114.6
85095.4
85081.5
85064.2
85050
85032
85014.4
84991.8
84967
84935.8
84900.1
84857
84808.4
84752.6
84691.5
84624.6
84554
84480.3
84405.6
84331.1
84258.6
84189.9
84126.1
84069
84019
83977.6
83944.3
83920.1
83904
83895.9
83894.4
83898.8
83907.3
83918.7
83931.1
83943.4
83953.5
83961.7
83964.7
85515.4
85503.4
85494.7
85471.5
85451.2
85420.2
85393.1
85358.5
85328.9
85294.1
85264.7
85231.5
85203
85171.1
85142.3
85109.7
85077.8
85041.1
85002.8
84958.6
84911.1
84857.2
84799.1
84735.1
84667.2
84595
84520.5
84444
84367.6
84292.3
84219.7
84151.1
84087.7
84030.9
83981.1
83939.5
83905.8
83880.7
83863.3
83853.5
83849.9
83852
83858
83867
83876.9
83887.3
83895.4
83902.7
83904.6
85566.1
85546
85536.4
85496.2
85473
85422.7
85392
85340.3
85307.1
85258.9
85226.2
85182.9
85151.3
85111.7
85079.7
85040.9
85005.7
84964
84922.8
84875
84825.6
84769.7
84711.3
84647.4
84581.1
84511.1
84439.8
84367.2
84295.2
84224.4
84156.5
84092.4
84033.1
83979.7
83932.6
83892.8
83860.1
83834.8
83816.3
83804.6
83798.3
83797.1
83799.3
83804.5
83810.5
83817.6
83822.6
83828.3
83828.7
85954
85927.1
85906.2
85851.4
85807.6
85736.7
85680.8
85604.2
85544.3
85469.4
85410.2
85340.2
85283.4
85218.6
85163.6
85102
85046.7
84985.5
84927.7
84864.5
84802.6
84735.9
84669.3
84599
84528.7
84456.4
84384.6
84312.7
84242.6
84174.3
84109.4
84048.2
83991.7
83940.6
83895.1
83855.9
83822.8
83796.1
83775
83759.7
83748.9
83742.5
83739
83738.6
83738.9
83741.4
83742
83745.2
83743.8
86086.5
86027
86003.8
85892.2
85842.3
85718.1