# vtk DataFile Version 3.0
Structured Grid Example
ASCII
DATASET STRUCTURED_GRID
DIMENSIONS 15 30 1
POINTS 450 FLOAT
0.0833327 0.0333334 0
0.0833313 0.1 0
0.0833301 0.166667 0
0.083329 0.233333 0
0.0833281 0.3 0
0.0833274 0.366667 0
0.083327 0.433333 0
0.0833268 0.5 0
0.083327 0.566667 0
0.0833274 0.633333 0
0.0833281 0.7 0
0.083329 0.766667 0
0.0833301 0.833333 0
0.0833313 0.9 0
0.0833327 0.966667 0
0.249998 0.0333334 0
0.249993 0.1 0
0.249989 0.166667 0
0.249986 0.233334 0
0.249983 0.3 0
0.24998 0.366667 0
0.249979 0.433333 0
0.249979 0.5 0
0.249979 0.566667 0
0.24998 0.633333 0
0.249983 0.7 0
0.249986 0.766666 0
0.249989 0.833333 0
0.249993 0.9 0
0.249998 0.966667 0
0.416662 0.0333336 0
0.416654 0.100001 0
0.416646 0.166668 0
0.416639 0.233334 0
0.416633 0.300001 0
0.416628 0.366667 0
0.416626 0.433334 0
0.416625 0.5 0
0.416626 0.566666 0
0.416628 0.633333 0
0.416633 0.699999 0
0.416639 0.766666 0
0.416646 0.833332 0
0.416654 0.899999 0
0.416662 0.966666 0
0.583326 0.033334 0
0.58331 0.100002 0
0.583296 0.166669 0
0.583284 0.233336 0
0.583273 0.300003 0
0.583266 0.366669 0
0.583261 0.433335 0
0.583259 0.5 0
0.583261 0.566665 0
0.583266 0.633331 0
0.583273 0.699997 0
0.583284 0.766664 0
0.583296 0.833331 0
0.58331 0.899998 0
0.583326 0.966666 0
0.749987 0.0333351 0
0.749961 0.100005 0
0.749937 0.166674 0
0.749915 0.233342 0
0.749898 0.300008 0
0.749884 0.366673 0
0.749876 0.433337 0
0.749874 0.5 0
0.749876 0.566663 0
0.749884 0.633327 0
0.749898 0.699992 0
0.749915 0.766658 0
0.749937 0.833326 0
0.749961 0.899995 0
0.749987 0.966665 0
0.916644 0.033338 0
0.916601 0.100013 0
0.91656 0.166686 0
0.916524 0.233356 0
0.916494 0.300021 0
0.916472 0.366683 0
0.916458 0.433342 0
0.916454 0.5 0
0.916458 0.566658 0
0.916472 0.633317 0
0.916494 0.699979 0
0.916524 0.766644 0
0.91656 0.833314 0
0.916601 0.899987 0
0.916644 0.966662 0
1.0833 0.0333461 0
1.08322 0.100036 0
1.08315 0.166719 0
1.08309 0.233394 0
1.08304 0.300058 0
1.08301 0.366712 0
1.08298 0.433358 0
1.08298 0.5 0
1.08298 0.566642 0
1.08301 0.633288 0
1.08304 0.699942 0
1.08309 0.766606 0
1.08315 0.833281 0
1.08322 0.899964 0
1.0833 0.966654 0
1.24994 0.0333682 0
1.24981 0.100098 0
1.2497 0.16681 0
1.24959 0.233497 0
1.24951 0.300156 0
1.24945 0.366788 0
1.24942 0.433399 0
1.2494 0.5 0
1.24942 0.566601 0
1.24945 0.633212 0
1.24951 0.699844 0
1.24959 0.766503 0
1.2497 0.83319 0
1.24981 0.899902 0
1.24994 0.966632 0
1.41656 0.0334298 0
1.41634 0.10027 0
1.41615 0.16706 0
1.41598 0.233778 0
1.41585 0.300419 0
1.41575 0.36699 0
1.41569 0.433509 0
1.41567 0.5 0
1.41569 0.566491 0
1.41575 0.63301 0
1.41585 0.699581 0
1.41598 0.766222 0
1.41615 0.83294 0
1.41634 0.89973 0
1.41656 0.96657 0
1.58313 0.0336075 0
1.58275 0.10076 0
1.58242 0.167751 0
1.58215 0.234537 0
1.58195 0.301115 0
1.58181 0.367517 0
1.58173 0.433791 0
1.58171 0.5 0
1.58173 0.566209 0
1.58181 0.632483 0
1.58195 0.698885 0
1.58215 0.765463 0
1.58242 0.832249 0
1.58275 0.89924 0
1.58313 0.966392 0
1.74959 0.0341677 0
1.74885 0.102235 0
1.74829 0.169714 0
1.74791 0.236575 0
1.74766 0.302905 0
1.74751 0.368829 0
1.74744 0.434482 0
1.74741 0.5 0
1.74744 0.565518 0
1.74751 0.631171 0
1.74766 0.697095 0
1.74791 0.763425 0
1.74829 0.830286 0
1.74885 0.897765 0
1.74959 0.965832 0
1.91555 0.0363295 0
1.91388 0.107253 0
1.91312 0.175401 0
1.91283 0.241837 0
1.91276 0.307169 0
1.91277 0.371793 0
1.9128 0.435995 0
1.91281 0.5 0
1.9128 0.564005 0
1.91277 0.628207 0
1.91276 0.692831 0
1.91283 0.758163 0
1.91312 0.824599 0
1.91388 0.892747 0
1.91555 0.963671 0
2.07838 0.0591504 0
2.07417 0.125973 0
2.07554 0.190391 0
2.07663 0.253364 0
2.07743 0.315525 0
2.07798 0.377223 0
2.07829 0.438667 0
2.0784 0.5 0
2.07829 0.561333 0
2.07798 0.622777 0
2.07743 0.684475 0
2.07663 0.746636 0
2.07554 0.809609 0
2.07417 0.874027 0
2.07838 0.94085 0
2.24384 0.096456 0
2.23911 0.153168 0
2.24152 0.210396 0
2.24318 0.267878 0
2.24431 0.325632 0
2.24503 0.383617 0
2.24544 0.441767 0
2.24557 0.5 0
2.24544 0.558233 0
2.24503 0.616383 0
2.24431 0.674368 0
2.24318 0.732122 0
2.24152 0.789604 0
2.23911 0.846832 0
2.24384 0.903544 0
2.41462 0.118677 0
2.41292 0.170231 0
2.41356 0.223198 0
2.41406 0.277268 0
2.41444 0.332207 0
2.4147 0.387788 0
2.41485 0.44379 0
2.4149 0.5 0
2.41485 0.55621 0
2.4147 0.612212 0
2.41444 0.667793 0
2.41406 0.722732 0
2.41356 0.776802 0
2.41292 0.829769 0
2.41462 0.881323 0
2.58538 0.118677 0
2.58708 0.170231 0
2.58644 0.223198 0
2.58594 0.277268 0
2.58556 0.332207 0
2.5853 0.387788 0
2.58515 0.44379 0
2.5851 0.5 0
2.58515 0.55621 0
2.5853 0.612212 0
2.58556 0.667793 0
2.58594 0.722732 0
2.58644 0.776802 0
2.58708 0.829769 0
2.58538 0.881323 0
2.75616 0.096456 0
2.76089 0.153168 0
2.75848 0.210396 0
2.75682 0.267878 0
2.75569 0.325632 0
2.75497 0.383617 0
2.75456 0.441767 0
2.75443 0.5 0
2.75456 0.558233 0
2.75497 0.616383 0
2.75569 0.674368 0
2.75682 0.732122 0
2.75848 0.789604 0
2.76089 0.846832 0
2.75616 0.903544 0
2.92162 0.0591504 0
2.92583 0.125973 0
2.92446 0.190391 0
2.92337 0.253364 0
2.92257 0.315525 0
2.92202 0.377223 0
2.92171 0.438667 0
2.9216 0.5 0
2.92171 0.561333 0
2.92202 0.622777 0
2.92257 0.684475 0
2.92337 0.746636 0
2.92446 0.809609 0
2.92583 0.874027 0
2.92162 0.94085 0
3.08445 0.0363295 0
3.08612 0.107253 0
3.08688 0.175401 0
3.08717 0.241837 0
3.08724 0.307169 0
3.08723 0.371793 0
3.0872 0.435995 0
3.08719 0.5 0
3.0872 0.564005 0
3.08723 0.628207 0
3.08724 0.692831 0
3.08717 0.758163 0
3.08688 0.824599 0
3.08612 0.892747 0
3.08445 0.963671 0
3.25041 0.0341677 0
3.25115 0.102235 0
3.25171 0.169714 0
3.25209 0.236575 0
3.25234 0.302905 0
3.25249 0.368829 0
3.25256 0.434482 0
3.25259 0.5 0
3.25256 0.565518 0
3.25249 0.631171 0
3.25234 0.697095 0
3.25209 0.763425 0
3.25171 0.830286 0
3.25115 0.897765 0
3.25041 0.965832 0
3.41687 0.0336075 0
3.41725 0.10076 0
3.41758 0.167751 0
3.41785 0.234537 0
3.41805 0.301115 0
3.41819 0.367517 0
3.41827 0.433791 0
3.41829 0.5 0
3.41827 0.566209 0
3.41819 0.632483 0
3.41805 0.698885 0
3.41785 0.765463 0
3.41758 0.832249 0
3.41725 0.89924 0
3.41687 0.966392 0
3.58344 0.0334298 0
3.58366 0.10027 0
3.58385 0.16706 0
3.58402 0.233778 0
3.58415 0.300419 0
3.58425 0.36699 0
3.58431 0.433509 0
3.58433 0.5 0
3.58431 0.566491 0
3.58425 0.63301 0
3.58415 0.699581 0
3.58402 0.766222 0
3.58385 0.83294 0
3.58366 0.89973 0
3.58344 0.96657 0
3.75006 0.0333682 0
3.75019 0.100098 0
3.7503 0.16681 0
3.75041 0.233497 0
3.75049 0.300156 0
3.75055 0.366788 0
3.75058 0.433399 0
3.7506 0.5 0
3.75058 0.566601 0
3.75055 0.633212 0
3.75049 0.699844 0
3.75041 0.766503 0
3.7503 0.83319 0
3.75019 0.899902 0
3.75006 0.966632 0
3.9167 0.0333461 0
3.91678 0.100036 0
3.91685 0.166719 0
3.91691 0.233394 0
3.91696 0.300058 0
3.91699 0.366712 0
3.91702 0.433358 0
3.91702 0.5 0
3.91702 0.566642 0
3.91699 0.633288 0
3.91696 0.699942 0
3.91691 0.766606 0
3.91685 0.833281 0
3.91678 0.899964 0
3.9167 0.966654 0
4.08336 0.033338 0
4.0834 0.100013 0
4.08344 0.166686 0
4.08348 0.233356 0
4.08351 0.300021 0
4.08353 0.366683 0
4.08354 0.433342 0
4.08355 0.5 0
4.08354 0.566658 0
4.08353 0.633317 0
4.08351 0.699979 0
4.08348 0.766644 0
4.08344 0.833314 0
4.0834 0.899987 0
4.08336 0.966662 0
4.25001 0.0333351 0
4.25004 0.100005 0
4.25006 0.166674 0
4.25008 0.233342 0
4.2501 0.300008 0
4.25012 0.366673 0
4.25012 0.433337 0
4.25013 0.5 0
4.25012 0.566663 0
4.25012 0.633327 0
4.2501 0.699992 0
4.25008 0.766658 0
4.25006 0.833326 0
4.25004 0.899995 0
4.25001 0.966665 0
4.41667 0.033334 0
4.41669 0.100002 0
4.4167 0.166669 0
4.41672 0.233336 0
4.41673 0.300003 0
4.41673 0.366669 0
4.41674 0.433335 0
4.41674 0.5 0
4.41674 0.566665 0
4.41673 0.633331 0
4.41673 0.699997 0
4.41672 0.766664 0
4.4167 0.833331 0
4.41669 0.899998 0
4.41667 0.966666 0
4.58334 0.0333336 0
4.58335 0.100001 0
4.58335 0.166668 0
4.58336 0.233334 0
4.58337 0.300001 0
4.58337 0.366667 0
4.58337 0.433334 0
4.58338 0.5 0
4.58337 0.566666 0
4.58337 0.633333 0
4.58337 0.699999 0
4.58336 0.766666 0
4.58335 0.833332 0
4.58335 0.899999 0
4.58334 0.966666 0
4.75 0.0333334 0
4.75001 0.1 0
4.75001 0.166667 0
4.75001 0.233334 0
4.75002 0.3 0
4.75002 0.366667 0
4.75002 0.433333 0
4.75002 0.5 0
4.75002 0.566667 0
4.75002 0.633333 0
4.75002 0.7 0
4.75001 0.766666 0
4.75001 0.833333 0
4.75001 0.9 0
4.75 0.966667 0
4.91667 0.0333334 0
4.91667 0.1 0
4.91667 0.166667 0
4.91667 0.233333 0
4.91667 0.3 0
4.91667 0.366667 0
4.91667 0.433333 0
4.91667 0.5 0
4.91667 0.566667 0
4.91667 0.633333 0
4.91667 0.7 0
4.91667 0.766667 0
4.91667 0.833333 0
4.91667 0.9 0
4.91667 0.966667 0
POINT_DATA 450
SCALARS pressure float 1
LOOKUP_TABLE default
94473.6
94473.5
94473.2
94472.9
94472.6
94472.3
94472.1
94472
94472.1
94472.3
94472.5
94472.9
94473.2
94473.4
94473.6
94207.7
94207.4
94207
94206.3
94205.8
94205.1
94204.9
94204.5
94204.8
94205
94205.7
94206.2
94206.9
94207.3
94207.5
94535.3
94535.4
94535.2
94535.1
94535
94534.9
94534.8
94534.7
94534.8
94534.8
94535
94535.1
94535.1
94535.3
94535.2
94135.9
94135.9
94136.3
94136.3
94137
94136.7
94137.5
94136.8
94137.4
94136.6
94136.8
94136
94136.1
94135.6
94135.6
94610.5
94611
94611.7
94612.5
94613.6
94614.2
94614.9
94614.9
94614.9
94614.1
94613.5
94612.4
94611.5
94610.8
94610.3
94046.6
94046.2
94047.7
94046.8
94049.3
94047.7
94050.4
94048.1
94050.2
94047.4
94048.8
94046.2
94047.1
94045.5
94045.9
94713
94712.8
94713.6
94713.2
94714.5
94713.8
94715.3
94714.1
94715.2
94713.7
94714.3
94712.8
94713.3
94712.3
94712.6
93945.1
93938.2
93939.6
93927.4
93930.6
93918.4
93924.4
93914.8
93924
93917.6
93929.5
93926
93937.9
93936.3
93943.1
94876.3
94865.3
94861.5
94845.4
94841.9
94828.2
94829.4
94821.5
94829.2
94827.6
94841.3
94844.3
94860.6
94864
94875.2
93904.6
93838.9
93834
93754.6
93751.3
93691.2
93701.8
93667.8
93700.7
93689.3
93748.2
93750.9
93829.2
93833.8
93899.1
95280.8
95139.4
95101.3
94990.7
94958.6
94888
94883.6
94851.7
94883.1
94885.9
94957.5
94986.8
95099.5
95134.4
95278.2
94574.2
93813.3
93770.9
93352.7
93301.4
93102.1
93095
93023.3
93092.6
93098.6
93294.1
93344.7
93758.2
93799
94555.6
96102.9
95461.1
95051.4
94756
94613.4
94479.3
94441.1
94401.1
94440.6
94473.6
94612.3
94742.8
95051.2
95436.3
96103.7
89136.1
90213.5
89828.7
90519.1
90314.2
90746
90553
90826.6
90552.7
90750.8
90313.4
90531.3
89827.7
90240.2
89128.1
90210.5
91519.8
91410.3
92232.2
92070.5
92591.8
92362.9
92701.8
92359.5
92594.9
92059.8
92239.4
91391.3
91533.4
90174.8
87372
88849.5
88627.9
89612.6
89372.6
90029.6
89716.9
90161.1
89710.1
90026.2
89350.7
89602.5
88587.7
88824.6
87297.6
91765.3
92525.8
92294.8
92847.7
92625.9
93036.9
92780.9
93099
92775.3
93040.1
92607.5
92853.3
92258.5
92529.2
91701.9
93238.4
92721.5
92591.2
92411.3
92288.5
92290.8
92172.8
92263.6
92170
92307.6
92279.9
92449.4
92573.5
92793.6
93233.3
96856.8
95826.5
95647.3
95163.8
95024.8
94826
94760.1
94726
94766.7
94838.7
95046.8
95189.6
95690.9
95864.9
96956.7
93007.5
93083
93059.6
93091.4
93063.1
93087.6
93056.4
93085.5
93055.4
93089.1
93059.9
93092.7
93053.4
93080.6
92998.9
95117.1
95036.1
94997.7
94906.4
94872.2
94814.4
94802.5
94783.6
94804.9
94818.8
94879.2
94914.4
95008.2
95046.1
95130.2
93515.2
93519.3
93518.8
93523.3
93521.2
93526.3
93522.3
93527.4
93522.2
93526.4
93520.8
93523.3
93518.1
93519.1
93514.9
94619.4
94612.3
94605.9
94592.6
94586.1
94575.2
94573.3
94568.9
94573.8
94576.3
94587.7
94594.3
94607.9
94614.2
94621.4
93784
93783.6
93783.3
93782.6
93781.6
93781.2
93780.3
93780.6
93780.4
93781.3
93781.8
93782.9
93783.6
93784.2
93784.6
94412.2
94410.4
94408.1
94404.1
94401.3
94397.8
94396.4
94395.2
94396.5
94397.9
94401.5
94404.3
94408.2
94410.5
94412.3
93929.2
93928.2
93926.8
93924.4
93922.2
93920.1
93918.8
93918.3
93918.9
93920.3
93922.4
93924.7
93927.1
93928.7
93929.8
94310.1
94308.8
94306.8
94303.9
94301.3
94298.7
94297.2
94296.5
94297.2
94298.6
94301.2
94303.8
94306.6
94308.6
94309.8
94000
93999.2
93997.9
93996
93994.2
93992.4
93991.3
93990.9
93991.4
93992.5
93994.4
93996.3
93998.3
93999.6
94000.5
94259.2
94258.6
94257.6
94256.2
94254.8
94253.5
94252.7
94252.4
94252.7
94253.5
94254.8
94256.1
94257.5
94258.5
94259.1
94025.9
94026
94025.9
94025.7
94025.4
94025.1
94025
94025
94025.1
94025.3
94025.7
94026.1
94026.4
94026.6
94026.6
SCALARS density float 1
LOOKUP_TABLE default
1.21459
1.21459
1.21459
1.21459
1.21459
1.21459
1.21458
1.21458
1.21458
1.21459
1.21459
1.21459
1.21459
1.21459
1.21459
1.21214
1.21213
1.21213
1.21213
1.21212
1.21212
1.21212
1.21211
1.21212
1.21212
1.21212
1.21213
1.21213
1.21213
1.21214
1.21515
1.21515
1.21515
1.21515
1.21515
1.21515
1.21515
1.21515
1.21515
1.21515
1.21515
1.21515
1.21515
1.21515
1.21515
1.21148
1.21148
1.21149
1.21149
1.21149
1.21149
1.2115
1.21149
1.2115
1.21149
1.21149
1.21149
1.21148
1.21148
1.21148
1.21584
1.21584
1.21585
1.21586
1.21587
1.21587
1.21588
1.21588
1.21588
1.21587
1.21587
1.21586
1.21585
1.21584
1.21584
1.21067
1.21067
1.21068
1.21068
1.2107
1.21069
1.21072
1.2107
1.21072
1.21069
1.2107
1.21067
1.21068
1.21066
1.21067
1.21676
1.21676
1.21677
1.21677
1.21678
1.21677
1.21679
1.21678
1.21679
1.21677
1.21678
1.21677
1.21677
1.21676
1.21676
1.20979
1.20974
1.20975
1.20964
1.20967
1.20956
1.20962
1.20953
1.20962
1.20956
1.20966
1.20963
1.20974
1.20972
1.20978
1.21813
1.21804
1.21802
1.21789
1.21786
1.21774
1.21775
1.21768
1.21775
1.21774
1.21786
1.21788
1.21801
1.21803
1.21813
1.20978
1.20918
1.20908
1.20832
1.20827
1.20771
1.2078
1.20748
1.20779
1.20769
1.20824
1.20828
1.20904
1.20913
1.20973
1.22087
1.21979
1.21963
1.21877
1.21856
1.21796
1.21795
1.21766
1.21794
1.21795
1.21856
1.21874
1.21961
1.21975
1.22086
1.2187
1.21074
1.20983
1.20555
1.20486
1.20284
1.20271
1.202
1.20269
1.2028
1.20479
1.20546
1.20971
1.2106
1.21853
1.22569
1.2209
1.21787
1.21579
1.21475
1.21372
1.21344
1.21313
1.21344
1.21367
1.21475
1.21569
1.21788
1.22064
1.22569
1.16444
1.17508
1.17118
1.17779
1.17588
1.18
1.17818
1.18077
1.17818
1.18004
1.17587
1.1779
1.17116
1.17546
1.16501
1.17548
1.18819
1.18668
1.19425
1.19259
1.19743
1.19524
1.1984
1.19521
1.19746
1.19249
1.19431
1.1865
1.18853
1.17568
1.14719
1.16161
1.1595
1.16875
1.16651
1.17272
1.16983
1.17398
1.16977
1.17269
1.1663
1.16864
1.15914
1.16162
1.14701
1.18883
1.19644
1.19459
1.19967
1.19773
1.20149
1.1992
1.20208
1.19915
1.20152
1.19756
1.1997
1.19427
1.19673
1.18917
1.20179
1.19782
1.19693
1.19507
1.19394
1.19389
1.19288
1.19366
1.19286
1.19405
1.19386
1.19538
1.19679
1.19893
1.20307
1.23286
1.22533
1.22459
1.22043
1.21922
1.21747
1.21694
1.21663
1.21701
1.21759
1.2194
1.22058
1.22502
1.22618
1.23501
1.19878
1.20032
1.20084
1.20136
1.20112
1.20137
1.20113
1.2014
1.20112
1.20137
1.20105
1.2013
1.20086
1.20083
1.19979
1.21825
1.21822
1.21861
1.21806
1.21779
1.21729
1.21722
1.21706
1.21725
1.21732
1.21781
1.21806
1.21881
1.21888
1.21943
1.2037
1.20433
1.205
1.20537
1.2054
1.20546
1.20545
1.20551
1.20545
1.20544
1.20534
1.2053
1.20513
1.20491
1.2047
1.21388
1.21437
1.21496
1.21519
1.21521
1.21511
1.21512
1.21509
1.21512
1.2151
1.21516
1.21515
1.21514
1.21498
1.21488
1.20627
1.20677
1.20739
1.20775
1.20784
1.20784
1.20784
1.20786
1.20784
1.20781
1.20777
1.20771
1.20757
1.20737
1.20722
1.21206
1.21251
1.21308
1.21343
1.21352
1.21349
1.21349
1.21348
1.21348
1.21346
1.21345
1.21339
1.21329
1.21311
1.21298
1.2077
1.20813
1.20869
1.20906
1.20918
1.20917
1.20916
1.20916
1.20915
1.20913
1.2091
1.20904
1.20891
1.20874
1.20861
1.21111
1.21151
1.21204
1.2124
1.21253
1.21253
1.21251
1.2125
1.2125
1.21248
1.21246
1.21239
1.21227
1.21211
1.21199
1.20856
1.20895
1.20947
1.20986
1.21001
1.21002
1.21001
1.21
1.20999
1.20997
1.20994
1.20986
1.20973
1.20956
1.20944
1.21031
1.21067
1.21117
1.21155
1.21171
1.21174
1.21172
1.21171
1.2117
1.21168
1.21164
1.21156
1.21142
1.21126
1.21115
1.20966
1.21001
1.21051
1.21091
1.2111
1.21114
1.21113
1.21111
1.2111
1.21108
1.21103
1.21093
1.21078
1.21061
1.2105
SCALARS u-velocity float 1
LOOKUP_TABLE default
99.5948
99.596
99.5974
99.5995
99.6011
99.603
99.6038
99.6046
99.6041
99.6036
99.602
99.6006
99.5986
99.5973
99.5963
98.7349
98.7352
98.7359
98.737
98.7382
98.7393
98.7401
98.7405
98.7403
98.7396
98.7386
98.7375
98.7366
98.7359
98.7356
99.6974
99.6997
99.7025
99.707
99.7096
99.7134
99.7141
99.7161
99.7146
99.7143
99.7109
99.7087
99.7046
99.702
99.6999
98.6088
98.6065
98.6037
98.601
98.5993
98.5983
98.5977
98.5977
98.5979
98.5985
98.5996
98.6014
98.6041
98.6069
98.6091
99.8423
99.8508
99.8597
99.8735
99.8794
99.89
99.8906
99.8965
99.8916
99.892
99.8823
99.8772
99.8642
99.8559
99.8478
98.4315
98.4203
98.4061
98.3956
98.3889
98.3866
98.3844
98.3854
98.3847
98.3872
98.3896
98.3965
98.4067
98.4205
98.4312
99.9728
100.019
100.059
100.118
100.142
100.185
100.188
100.209
100.19
100.189
100.149
100.127
100.07
100.032
99.9874
98.1827
98.1343
98.0952
98.0891
98.0907
98.1112
98.1159
98.1306
98.1172
98.114
98.0939
98.0938
98.0981
98.1351
98.1801
99.7883
100.078
100.232
100.494
100.6
100.77
100.795
100.861
100.8
100.779
100.615
100.511
100.257
100.11
99.8311
97.4471
97.3379
97.4535
97.6626
97.8097
98.0311
98.1153
98.208
98.1208
98.0439
97.8231
97.6859
97.4725
97.3517
97.4306
97.8095
99.6648
100.014
101.225
101.724
102.273
102.459
102.594
102.468
102.289
101.754
101.259
100.059
99.7245
97.9492
89.6047
94.6032
96.4229
98.2279
99.2476
100.396
100.812
101.125
100.828
100.434
99.2887
98.3003
96.5003
94.7565
89.526
89.9998
94.2046
101.736
104.029
106.534
106.989
108.033
107.782
108.049
107.02
106.59
104.122
101.865
94.2737
90.2805
123.81
120.298
120.882
119.447
119.759
118.286
118.687
117.822
118.687
118.26
119.766
119.375
120.83
120.351
124.982
134.829
130.576
127.565
124.975
123.931
122.167
121.983
121.207
121.999
122.186
123.978
124.975
127.635
131.037
135.999
136.999
133.259
130.023
127.581
126.38
124.926
124.552
123.998
124.583
124.979
126.469
127.674
130.263
133.893
138.145
117.888
120.317
118.2
118.468
117.438
117.546
116.818
117.061
116.84
117.547
117.484
118.419
118.336
120.852
120.137
89.3315
101.723
102.681
106.318
106.58
108.685
108.299
109.246
108.265
108.615
106.434
106.029
102.395
102.321
92.1841
79.2955
90.7327
95.703
99.1547
100.364
102.134
102.294
102.951
102.251
102.077
100.145
98.8836
95.4825
91.7925
81.7146
96.1454
98.7993
102.034
103.028
103.459
103.952
104.025
104.259
104.022
103.936
103.343
102.863
102.171
100.075
98.6723
91.1863
93.9197
97.043
98.5978
99.1568
99.685
99.8394
100.054
99.8309
99.6446
98.9952
98.4076
97.2313
95.2261
93.597
96.0032
98.0389
100.588
101.808
102.191
102.344
102.437
102.508
102.442
102.311
102.054
101.676
100.903
99.3915
98.3255
93.5199
95.4695
97.8929
99.2757
99.7339
99.8944
99.9792
100.046
99.9786
99.8425
99.5777
99.1545
98.2629
96.8459
95.7894
95.6692
97.439
99.6733
101.045
101.523
101.626
101.679
101.712
101.677
101.565
101.368
100.958
100.102
98.8195
97.8591
94.4196
96.0956
98.2512
99.6796
100.223
100.34
100.378
100.402
100.368
100.265
100.061
99.6165
98.7251
97.4901
96.5697
95.4897
97.0559
99.1123
100.55
101.14
101.266
101.287
101.297
101.27
101.178
100.978
100.514
99.6224
98.4448
97.5791
94.9351
96.4226
98.4156
99.8749
100.516
100.663
100.675
100.675
100.649
100.564
100.354
99.8642
98.9605
97.8165
96.989
95.4261
96.8341
98.7558
100.217
100.899
101.067
101.072
101.062
101.037
100.956
100.739
100.231
99.3274
98.2212
97.4341
95.2889
96.6322
98.497
99.9625
100.683
100.873
100.874
100.855
100.83
100.752
100.526
99.9989
99.0941
98.0175
97.2631
95.4207
96.7042
98.5124
99.9734
100.725
100.938
100.94
100.914
100.888
100.809
100.573
100.032
99.1304
98.0833
97.3594
SCALARS v-velocity float 1
LOOKUP_TABLE default
-0.000402231
-0.000779115
-0.00130909
-0.00129159
-0.00133044
-0.000987171
-0.000673296
-0.000223659
0.000236182
0.000575656
0.000962834
0.000983428
0.00107456
0.000633322
0.000351297
0.00154517
0.00355518
0.00552508
0.00602894
0.00588948
0.00457745
0.00272426
0.000416406
-0.00191114
-0.00381243
-0.00520794
-0.00545791
-0.00509219
-0.00328523
-0.0014519
0.00067517
0.00199813
0.00311663
0.00395325
0.00390397
0.00322657
0.00172026
-0.00010126
-0.00191469
-0.00342165
-0.00408774
-0.00412287
-0.00326181
-0.00209268
-0.000713628
0.00498883
0.0104601
0.0167401
0.0173408
0.0171891
0.0129528
0.00788396
0.0013105
-0.00532916
-0.0105366
-0.0150268
-0.015511
-0.0153306
-0.0095747
-0.0046745
-0.000899225
-0.00191521
-0.00118294
8.57573e-05
0.00139127
0.00158333
0.00116614
4.66089e-05
-0.00104348
-0.00154648
-0.0014041
-0.000195569
0.000989428
0.0017618
0.000802519
0.0158926
0.0297415
0.0468565
0.0456642
0.0446906
0.0326775
0.0198507
0.00343097
-0.0131951
-0.0263014
-0.0389472
-0.0406978
-0.042887
-0.0271823
-0.0149271
-0.00573338
-0.0103823
-0.00529255
-0.000814237
0.00522457
0.00538765
0.00489976
0.000830127
-0.00305
-0.00409441
-0.00420589
0.00116994
0.00491597
0.00988204
0.00522141
0.0727379
0.117474
0.172626
0.168555
0.156159
0.114997
0.065095
0.00833161
-0.0491553
-0.0992654
-0.141936
-0.15583
-0.161751
-0.109848
-0.0693486
0.013643
0.0906173
0.161165
0.176332
0.182952
0.139822
0.0834451
0.00487263
-0.0724014
-0.131739
-0.1756
-0.17218
-0.160686
-0.0926352
-0.0176579
0.375009
0.503962
0.685906
0.723833
0.595023
0.462325
0.235561
0.0183589
-0.201812
-0.42695
-0.563494
-0.694191
-0.65996
-0.481489
-0.358713
1.11237
1.71478
2.0129
1.90508
1.66758
1.19358
0.640984
0.0212798
-0.59061
-1.15516
-1.62642
-1.87809
-1.98942
-1.71169
-1.14327
-0.316287
3.35327
2.50031
3.06154
2.01705
1.6906
0.761967
0.0354606
-0.702181
-1.6227
-1.96396
-3.00361
-2.47127
-3.33219
0.354097
23.0995
19.9482
15.9894
12.917
9.05783
6.13358
2.95473
0.0666066
-2.7939
-5.99749
-8.87622
-12.7799
-15.7642
-19.7753
-22.8707
25.1262
16.0639
13.1664
8.69017
6.62368
3.84305
2.04731
0.0752812
-1.90616
-3.68946
-6.48296
-8.52061
-12.9988
-15.8655
-25.2956
11.4078
7.10048
6.75519
4.16028
3.72853
2.00389
1.21588
0.0685755
-1.13151
-1.87259
-3.67176
-4.04054
-6.75348
-7.06427
-11.6396
-8.23236
-8.5669
-4.69503
-4.81034
-2.38793
-2.10514
-0.684557
0.126046
0.863734
2.35926
2.57146
5.07597
4.89764
8.85521
8.46303
-20.8593
-18.1292
-12.1346
-10.0811
-6.22628
-4.4061
-1.84504
0.155807
2.06791
4.74103
6.48229
10.4958
12.5095
18.7946
21.5347
-23.3203
-18.4069
-14.4322
-10.8726
-7.84496
-4.97457
-2.41777
0.188187
2.61426
5.37432
8.04424
11.3601
14.6721
19.1732
23.903
-2.4703
-0.487024
-2.21449
-1.30836
-1.73331
-0.899376
-0.613088
0.0441888
0.636705
0.973531
1.73623
1.35674
2.18513
0.42156
2.33116
-1.91213
-2.22137
-2.70294
-2.21077
-2.04345
-1.2901
-0.708452
0.0564257
0.77458
1.39215
2.10363
2.29714
2.73972
2.18001
1.88953
-0.201362
-0.278504
-0.381908
-0.217595
-0.347054
-0.176755
-0.135131
0.0105077
0.140176
0.193741
0.358009
0.239191
0.382088
0.232774
0.175485
-0.180918
-0.375906
-0.447819
-0.360015
-0.385926
-0.25576
-0.151256
0.0117574
0.165754
0.277028
0.406141
0.381554
0.443564
0.33141
0.157033
-0.0436973
-0.11746
-0.0942693
-0.0424003
-0.0648315
-0.0452591
-0.0338665
0.00209978
0.0354608
0.0520747
0.0772237
0.0562081
0.0887411
0.0861323
0.0256657
-0.0495053
-0.120712
-0.107425
-0.0660246
-0.0673321
-0.0543835
-0.0357944
0.000240912
0.0355537
0.058824
0.0769614
0.0732445
0.0944441
0.0876241
0.0314907
-0.0298105
-0.0687778
-0.045501
-0.0108808
-0.00786838
-0.0122544
-0.0116567
-0.000476966
0.0114378
0.0170762
0.0183546
0.0186444
0.0359266
0.0437814
0.0160441
-0.0301981
-0.0664948
-0.0490529
-0.0166753
-0.00786705
-0.0112849
-0.0113192
-0.00237356
0.00794267
0.0130183
0.0142574
0.0186305
0.0345751
0.040264
0.0166505
-0.0226987
-0.0474742
-0.0297254
-0.000315153
0.00916554
0.00312321
-0.00255403
-0.00137678
0.00159638
0.00112173
-0.000836819
0.00384566
0.0185286
0.0264078
0.0118094
-0.0217125
-0.0455823
-0.0311141
-0.0034047
0.00821881
0.00392946
-0.00225282
-0.00284963
-0.00143382
-0.00251781
-0.00359057
0.00254419
0.0167738
0.0237995
0.0110053
-0.0176587
-0.0363958
-0.0229865
0.00225814
0.013925
0.00978664
0.00185682
-0.00195242
-0.00360842
-0.00655799
-0.00809023
-0.00206295
0.0109693
0.0179969
0.00865236
-0.0182971
-0.038741
-0.027777
-0.00352984
0.00966445
0.00752839
0.000737087
-0.00275758
-0.00403683
-0.00599616
-0.00611786
0.000980405
0.0135485
0.0193326
0.0090881
SCALARS Mach float 1
LOOKUP_TABLE default
30.0587
30.0594
30.0602
30.0616
30.0626
30.0637
30.0642
30.0647
30.0644
30.0641
30.0631
30.0622
30.061
30.0602
30.0596
29.5536
29.5538
29.5542
29.5549
29.5556
29.5564
29.5569
29.5571
29.557
29.5566
29.5559
29.5553
29.5546
29.5542
29.554
30.1176
30.119
30.1208
30.1235
30.125
30.1273
30.1278
30.129
30.1281
30.1279
30.1259
30.1245
30.122
30.1204
30.1191
29.4814
29.48
29.4783
29.4767
29.4757
29.4751
29.4748
29.4748
29.4748
29.4753
29.4759
29.477
29.4786
29.4803
29.4816
30.2018
30.207
30.2123
30.2206
30.2242
30.2306
30.2309
30.2344
30.2315
30.2318
30.2259
30.2229
30.215
30.2101
30.2052
29.3796
29.3729
29.3644
29.3582
29.3541
29.3529
29.3514
29.3521
29.3516
29.3533
29.3546
29.3588
29.3648
29.3731
29.3795
30.276
30.3038
30.328
30.3642
30.3788
30.4045
30.4065
30.419
30.4078
30.4071
30.3827
30.3693
30.3346
30.3116
30.2848
29.2364
29.208
29.1848
29.1817
29.1825
29.1953
29.1978
29.207
29.1986
29.197
29.1845
29.1846
29.1866
29.2086
29.2351
30.1553
30.3312
30.4253
30.5853
30.6503
30.7543
30.7698
30.8102
30.7727
30.7598
30.6592
30.596
30.4401
30.3509
30.1813
28.8065
28.7452
28.8138
28.9408
29.0275
29.1611
29.2102
29.2668
29.2135
29.1688
29.0354
28.9547
28.8251
28.7535
28.7969
28.9458
30.0684
30.2868
31.0304
31.3367
31.6759
31.7886
31.8729
31.7938
31.6854
31.3552
31.0508
30.3136
30.1047
29.029
24.3594
27.2073
28.2434
29.333
29.9282
30.6278
30.8749
31.0676
30.8843
30.6506
29.9525
29.3753
28.2887
27.2956
24.3173
26.0585
28.0257
32.085
33.267
34.6186
34.7878
35.3834
35.1958
35.3913
34.8036
34.6447
33.3159
32.143
28.0449
26.1793
48.7536
44.9289
45.1219
43.726
43.8717
42.6859
42.956
42.3026
42.9545
42.6637
43.8712
43.6641
45.0699
44.9493
49.685
55.8568
52.0751
49.6915
47.5519
46.76
45.3734
45.2433
44.6428
45.2554
45.3858
46.7948
47.5484
49.7476
52.4447
56.8561
57.6857
54.4911
51.7478
49.751
48.7858
47.6178
47.3452
46.8906
47.3703
47.6622
48.8582
49.8319
51.949
55.0313
58.6838
43.5996
44.9937
42.9286
42.9458
42.0326
42.0238
41.4746
41.6158
41.4929
42.0336
42.0762
42.9354
43.0573
45.4651
45.3374
25.8638
32.4619
32.671
34.7139
34.7175
35.9819
35.6775
36.2808
35.6586
35.9474
34.6334
34.5576
32.5148
32.9224
27.5338
18.9778
24.8806
27.7127
29.7617
30.503
31.5922
31.6935
32.1026
31.6668
31.5565
30.369
29.5975
27.5833
25.4686
20.1574
28.0592
29.6398
31.6293
32.2424
32.5123
32.814
32.8591
33.004
32.8575
32.8048
32.4401
32.1392
31.7162
30.4164
29.5665
25.1499
26.6914
28.5067
29.4347
29.7717
30.0924
30.1867
30.3177
30.1815
30.0677
29.6739
29.3201
28.6182
27.4451
26.5083
27.9464
29.1516
30.6957
31.449
31.6865
31.7815
31.8398
31.8838
31.8426
31.7609
31.6014
31.3663
30.89
29.9686
29.327
26.4754
27.5973
29.0243
29.8549
30.1324
30.23
30.2817
30.3224
30.2813
30.1983
30.0372
29.7813
29.2459
28.4057
27.787
27.7421
28.784
30.1269
30.9666
31.2617
31.3251
31.3582
31.3785
31.3565
31.2873
31.1654
30.9129
30.3886
29.6126
29.0379
26.9965
27.9689
29.245
30.1064
30.4372
30.5088
30.5317
30.5464
30.5257
30.4624
30.338
30.068
29.5303
28.7936
28.2508
27.633
28.5521
29.782
30.6575
31.0201
31.0974
31.1108
31.117
31.1001
31.0432
30.9199
30.6354
30.092
29.3825
28.8662
27.2962
28.1632
29.3461
30.2279
30.6195
30.7095
30.7166
30.7167
30.7007
30.648
30.5197
30.2212
29.6748
28.9904
28.5005
27.5957
28.4207
29.5665
30.4531
30.8711
30.9743
30.9774
30.9712
30.9559
30.9059
30.7725
30.4614
29.9128
29.2481
28.7796
27.4983
28.2834
29.3918
30.2779
30.718
30.8348
30.8355
30.8239
30.8085
30.7603
30.6215
30.3001
29.7524
29.1073
28.6595
27.6013
28.3529
29.4292
30.3136
30.7733
30.9046
30.9055
30.8895
30.8731
30.8247
30.6796
30.3493
29.8028
29.1745
28.7441
