# vtk DataFile Version 3.0
Structured Grid Example
ASCII
DATASET STRUCTURED_GRID
DIMENSIONS 15 30 1
POINTS 450 FLOAT
0.0833327 0.0333334 0
0.0833313 0.1 0
0.0833301 0.166667 0
0.083329 0.233333 0
0.0833281 0.3 0
0.0833274 0.366667 0
0.083327 0.433333 0
0.0833268 0.5 0
0.083327 0.566667 0
0.0833274 0.633333 0
0.0833281 0.7 0
0.083329 0.766667 0
0.0833301 0.833333 0
0.0833313 0.9 0
0.0833327 0.966667 0
0.249998 0.0333334 0
0.249993 0.1 0
0.249989 0.166667 0
0.249986 0.233334 0
0.249983 0.3 0
0.24998 0.366667 0
0.249979 0.433333 0
0.249979 0.5 0
0.249979 0.566667 0
0.24998 0.633333 0
0.249983 0.7 0
0.249986 0.766666 0
0.249989 0.833333 0
0.249993 0.9 0
0.249998 0.966667 0
0.416662 0.0333336 0
0.416654 0.100001 0
0.416646 0.166668 0
0.416639 0.233334 0
0.416633 0.300001 0
0.416628 0.366667 0
0.416626 0.433334 0
0.416625 0.5 0
0.416626 0.566666 0
0.416628 0.633333 0
0.416633 0.699999 0
0.416639 0.766666 0
0.416646 0.833332 0
0.416654 0.899999 0
0.416662 0.966666 0
0.583326 0.033334 0
0.58331 0.100002 0
0.583296 0.166669 0
0.583284 0.233336 0
0.583273 0.300003 0
0.583266 0.366669 0
0.583261 0.433335 0
0.583259 0.5 0
0.583261 0.566665 0
0.583266 0.633331 0
0.583273 0.699997 0
0.583284 0.766664 0
0.583296 0.833331 0
0.58331 0.899998 0
0.583326 0.966666 0
0.749987 0.0333351 0
0.749961 0.100005 0
0.749937 0.166674 0
0.749915 0.233342 0
0.749898 0.300008 0
0.749884 0.366673 0
0.749876 0.433337 0
0.749874 0.5 0
0.749876 0.566663 0
0.749884 0.633327 0
0.749898 0.699992 0
0.749915 0.766658 0
0.749937 0.833326 0
0.749961 0.899995 0
0.749987 0.966665 0
0.916644 0.033338 0
0.916601 0.100013 0
0.91656 0.166686 0
0.916524 0.233356 0
0.916494 0.300021 0
0.916472 0.366683 0
0.916458 0.433342 0
0.916454 0.5 0
0.916458 0.566658 0
0.916472 0.633317 0
0.916494 0.699979 0
0.916524 0.766644 0
0.91656 0.833314 0
0.916601 0.899987 0
0.916644 0.966662 0
1.0833 0.0333461 0
1.08322 0.100036 0
1.08315 0.166719 0
1.08309 0.233394 0
1.08304 0.300058 0
1.08301 0.366712 0
1.08298 0.433358 0
1.08298 0.5 0
1.08298 0.566642 0
1.08301 0.633288 0
1.08304 0.699942 0
1.08309 0.766606 0
1.08315 0.833281 0
1.08322 0.899964 0
1.0833 0.966654 0
1.24994 0.0333682 0
1.24981 0.100098 0
1.2497 0.16681 0
1.24959 0.233497 0
1.24951 0.300156 0
1.24945 0.366788 0
1.24942 0.433399 0
1.2494 0.5 0
1.24942 0.566601 0
1.24945 0.633212 0
1.24951 0.699844 0
1.24959 0.766503 0
1.2497 0.83319 0
1.24981 0.899902 0
1.24994 0.966632 0
1.41656 0.0334298 0
1.41634 0.10027 0
1.41615 0.16706 0
1.41598 0.233778 0
1.41585 0.300419 0
1.41575 0.36699 0
1.41569 0.433509 0
1.41567 0.5 0
1.41569 0.566491 0
1.41575 0.63301 0
1.41585 0.699581 0
1.41598 0.766222 0
1.41615 0.83294 0
1.41634 0.89973 0
1.41656 0.96657 0
1.58313 0.0336075 0
1.58275 0.10076 0
1.58242 0.167751 0
1.58215 0.234537 0
1.58195 0.301115 0
1.58181 0.367517 0
1.58173 0.433791 0
1.58171 0.5 0
1.58173 0.566209 0
1.58181 0.632483 0
1.58195 0.698885 0
1.58215 0.765463 0
1.58242 0.832249 0
1.58275 0.89924 0
1.58313 0.966392 0
1.74959 0.0341677 0
1.74885 0.102235 0
1.74829 0.169714 0
1.74791 0.236575 0
1.74766 0.302905 0
1.74751 0.368829 0
1.74744 0.434482 0
1.74741 0.5 0
1.74744 0.565518 0
1.74751 0.631171 0
1.74766 0.697095 0
1.74791 0.763425 0
1.74829 0.830286 0
1.74885 0.897765 0
1.74959 0.965832 0
1.91555 0.0363295 0
1.91388 0.107253 0
1.91312 0.175401 0
1.91283 0.241837 0
1.91276 0.307169 0
1.91277 0.371793 0
1.9128 0.435995 0
1.91281 0.5 0
1.9128 0.564005 0
1.91277 0.628207 0
1.91276 0.692831 0
1.91283 0.758163 0
1.91312 0.824599 0
1.91388 0.892747 0
1.91555 0.963671 0
2.07838 0.0591504 0
2.07417 0.125973 0
2.07554 0.190391 0
2.07663 0.253364 0
2.07743 0.315525 0
2.07798 0.377223 0
2.07829 0.438667 0
2.0784 0.5 0
2.07829 0.561333 0
2.07798 0.622777 0
2.07743 0.684475 0
2.07663 0.746636 0
2.07554 0.809609 0
2.07417 0.874027 0
2.07838 0.94085 0
2.24384 0.096456 0
2.23911 0.153168 0
2.24152 0.210396 0
2.24318 0.267878 0
2.24431 0.325632 0
2.24503 0.383617 0
2.24544 0.441767 0
2.24557 0.5 0
2.24544 0.558233 0
2.24503 0.616383 0
2.24431 0.674368 0
2.24318 0.732122 0
2.24152 0.789604 0
2.23911 0.846832 0
2.24384 0.903544 0
2.41462 0.118677 0
2.41292 0.170231 0
2.41356 0.223198 0
2.41406 0.277268 0
2.41444 0.332207 0
2.4147 0.387788 0
2.41485 0.44379 0
2.4149 0.5 0
2.41485 0.55621 0
2.4147 0.612212 0
2.41444 0.667793 0
2.41406 0.722732 0
2.41356 0.776802 0
2.41292 0.829769 0
2.41462 0.881323 0
2.58538 0.118677 0
2.58708 0.170231 0
2.58644 0.223198 0
2.58594 0.277268 0
2.58556 0.332207 0
2.5853 0.387788 0
2.58515 0.44379 0
2.5851 0.5 0
2.58515 0.55621 0
2.5853 0.612212 0
2.58556 0.667793 0
2.58594 0.722732 0
2.58644 0.776802 0
2.58708 0.829769 0
2.58538 0.881323 0
2.75616 0.096456 0
2.76089 0.153168 0
2.75848 0.210396 0
2.75682 0.267878 0
2.75569 0.325632 0
2.75497 0.383617 0
2.75456 0.441767 0
2.75443 0.5 0
2.75456 0.558233 0
2.75497 0.616383 0
2.75569 0.674368 0
2.75682 0.732122 0
2.75848 0.789604 0
2.76089 0.846832 0
2.75616 0.903544 0
2.92162 0.0591504 0
2.92583 0.125973 0
2.92446 0.190391 0
2.92337 0.253364 0
2.92257 0.315525 0
2.92202 0.377223 0
2.92171 0.438667 0
2.9216 0.5 0
2.92171 0.561333 0
2.92202 0.622777 0
2.92257 0.684475 0
2.92337 0.746636 0
2.92446 0.809609 0
2.92583 0.874027 0
2.92162 0.94085 0
3.08445 0.0363295 0
3.08612 0.107253 0
3.08688 0.175401 0
3.08717 0.241837 0
3.08724 0.307169 0
3.08723 0.371793 0
3.0872 0.435995 0
3.08719 0.5 0
3.0872 0.564005 0
3.08723 0.628207 0
3.08724 0.692831 0
3.08717 0.758163 0
3.08688 0.824599 0
3.08612 0.892747 0
3.08445 0.963671 0
3.25041 0.0341677 0
3.25115 0.102235 0
3.25171 0.169714 0
3.25209 0.236575 0
3.25234 0.302905 0
3.25249 0.368829 0
3.25256 0.434482 0
3.25259 0.5 0
3.25256 0.565518 0
3.25249 0.631171 0
3.25234 0.697095 0
3.25209 0.763425 0
3.25171 0.830286 0
3.25115 0.897765 0
3.25041 0.965832 0
3.41687 0.0336075 0
3.41725 0.10076 0
3.41758 0.167751 0
3.41785 0.234537 0
3.41805 0.301115 0
3.41819 0.367517 0
3.41827 0.433791 0
3.41829 0.5 0
3.41827 0.566209 0
3.41819 0.632483 0
3.41805 0.698885 0
3.41785 0.765463 0
3.41758 0.832249 0
3.41725 0.89924 0
3.41687 0.966392 0
3.58344 0.0334298 0
3.58366 0.10027 0
3.58385 0.16706 0
3.58402 0.233778 0
3.58415 0.300419 0
3.58425 0.36699 0
3.58431 0.433509 0
3.58433 0.5 0
3.58431 0.566491 0
3.58425 0.63301 0
3.58415 0.699581 0
3.58402 0.766222 0
3.58385 0.83294 0
3.58366 0.89973 0
3.58344 0.96657 0
3.75006 0.0333682 0
3.75019 0.100098 0
3.7503 0.16681 0
3.75041 0.233497 0
3.75049 0.300156 0
3.75055 0.366788 0
3.75058 0.433399 0
3.7506 0.5 0
3.75058 0.566601 0
3.75055 0.633212 0
3.75049 0.699844 0
3.75041 0.766503 0
3.7503 0.83319 0
3.75019 0.899902 0
3.75006 0.966632 0
3.9167 0.0333461 0
3.91678 0.100036 0
3.91685 0.166719 0
3.91691 0.233394 0
3.91696 0.300058 0
3.91699 0.366712 0
3.91702 0.433358 0
3.91702 0.5 0
3.91702 0.566642 0
3.91699 0.633288 0
3.91696 0.699942 0
3.91691 0.766606 0
3.91685 0.833281 0
3.91678 0.899964 0
3.9167 0.966654 0
4.08336 0.033338 0
4.0834 0.100013 0
4.08344 0.166686 0
4.08348 0.233356 0
4.08351 0.300021 0
4.08353 0.366683 0
4.08354 0.433342 0
4.08355 0.5 0
4.08354 0.566658 0
4.08353 0.633317 0
4.08351 0.699979 0
4.08348 0.766644 0
4.08344 0.833314 0
4.0834 0.899987 0
4.08336 0.966662 0
4.25001 0.0333351 0
4.25004 0.100005 0
4.25006 0.166674 0
4.25008 0.233342 0
4.2501 0.300008 0
4.25012 0.366673 0
4.25012 0.433337 0
4.25013 0.5 0
4.25012 0.566663 0
4.25012 0.633327 0
4.2501 0.699992 0
4.25008 0.766658 0
4.25006 0.833326 0
4.25004 0.899995 0
4.25001 0.966665 0
4.41667 0.033334 0
4.41669 0.100002 0
4.4167 0.166669 0
4.41672 0.233336 0
4.41673 0.300003 0
4.41673 0.366669 0
4.41674 0.433335 0
4.41674 0.5 0
4.41674 0.566665 0
4.41673 0.633331 0
4.41673 0.699997 0
4.41672 0.766664 0
4.4167 0.833331 0
4.41669 0.899998 0
4.41667 0.966666 0
4.58334 0.0333336 0
4.58335 0.100001 0
4.58335 0.166668 0
4.58336 0.233334 0
4.58337 0.300001 0
4.58337 0.366667 0
4.58337 0.433334 0
4.58338 0.5 0
4.58337 0.566666 0
4.58337 0.633333 0
4.58337 0.699999 0
4.58336 0.766666 0
4.58335 0.833332 0
4.58335 0.899999 0
4.58334 0.966666 0
4.75 0.0333334 0
4.75001 0.1 0
4.75001 0.166667 0
4.75001 0.233334 0
4.75002 0.3 0
4.75002 0.366667 0
4.75002 0.433333 0
4.75002 0.5 0
4.75002 0.566667 0
4.75002 0.633333 0
4.75002 0.7 0
4.75001 0.766666 0
4.75001 0.833333 0
4.75001 0.9 0
4.75 0.966667 0
4.91667 0.0333334 0
4.91667 0.1 0
4.91667 0.166667 0
4.91667 0.233333 0
4.91667 0.3 0
4.91667 0.366667 0
4.91667 0.433333 0
4.91667 0.5 0
4.91667 0.566667 0
4.91667 0.633333 0
4.91667 0.7 0
4.91667 0.766667 0
4.91667 0.833333 0
4.91667 0.9 0
4.91667 0.966667 0
POINT_DATA 450
SCALARS pressure float 1
LOOKUP_TABLE default
94472.9
94472.9
94472.8
94472.8
94472.8
94472.8
94472.8
94472.8
94472.8
94472.8
94472.8
94472.8
94472.8
94472.8
94472.8
94206.3
94206.3
94206.3
94206.1
94206.2
94206
94206.1
94205.9
94206.1
94206
94206.1
94206.1
94206.2
94206.2
94206.2
94535.1
94535.1
94535.1
94535.1
94535
94535
94535
94535
94535
94535
94535
94535
94535.1
94535.1
94535.1
94137.1
94136.8
94136.9
94136.4
94136.6
94135.9
94136.4
94135.7
94136.3
94135.8
94136.5
94136.2
94136.7
94136.6
94136.8
94613.3
94613.2
94613.1
94612.8
94612.7
94612.3
94612.4
94612.1
94612.3
94612.3
94612.6
94612.7
94613
94613
94613.1
94050.8
94049.6
94049.9
94047.2
94047.9
94044.8
94046.4
94043.8
94046.3
94044.6
94047.5
94046.6
94049.3
94048.9
94050.1
94718
94716.8
94716.2
94713.7
94713
94710.5
94710.7
94709.1
94710.6
94710.3
94712.8
94713.3
94715.9
94716.4
94717.6
93949.9
93942.1
93942.1
93927.8
93929.1
93915
93919.9
93909.8
93919.5
93914.3
93928
93926.4
93940.4
93940.3
93948
94880.1
94868.4
94863.4
94845.8
94840.7
94825.6
94825.9
94817.5
94825.7
94824.9
94840.1
94844.6
94862.5
94867.1
94878.9
93906.9
93840.9
93835.2
93754.8
93750.6
93689.6
93699.7
93665.4
93698.6
93687.7
93747.5
93751.1
93830.4
93835.8
93901.4
95281.4
95139.9
95101.6
94990.7
94958.4
94887.5
94883
94851.1
94882.6
94885.4
94957.2
94986.8
95099.7
95134.9
95278.7
94573.6
93812.8
93770.6
93352.7
93301.7
93102.7
93095.8
93024.1
93093.4
93099.2
93294.4
93344.7
93757.8
93798.5
94555
96101.6
95460
95050.8
94756
94614
94480.4
94442.7
94402.8
94442.2
94474.7
94612.9
94742.8
95050.6
95435.2
96102.4
89134.9
90212.6
89828.1
90519
90314.5
90746.8
90554
90827.7
90553.7
90751.5
90313.8
90531.2
89827
90239.2
89126.9
90209.8
91519.3
91409.9
92232
92070.5
92592.1
92363.3
92702.3
92359.9
92595.1
92059.8
92239.2
91390.9
91532.8
90174
87371.9
88849.5
88627.8
89612.5
89372.4
90029.6
89716.8
90161.1
89709.9
90026.1
89350.6
89602.4
88587.5
88824.5
87297.5
91766.6
92526.8
92295.4
92847.9
92625.7
93036.3
92780.1
93098.1
92774.5
93039.5
92607.2
92853.4
92259.1
92530.2
91703.1
93241.8
92723.9
92592.6
92411.5
92287.6
92288.9
92170.2
92260.9
92167.4
92305.7
92278.9
92449.5
92574.9
92795.9
93236.5
96862.1
95830.7
95649.8
95164.1
95023
94822.3
94755.2
94720.7
94761.8
94835
95045
95189.9
95693.4
95869.1
96961.9
93013.5
93087.9
93062.7
93091.9
93061.1
93083.3
93050.6
93079.2
93049.6
93084.8
93057.8
93093.1
93056.4
93085.5
93004.8
95122.7
95040.7
95000.5
94906.8
94870.3
94810.3
94797.1
94777.6
94799.5
94814.7
94877.3
94914.7
95011
95050.7
95135.6
93519.1
93522.6
93520.8
93523.6
93519.9
93523.3
93518.5
93523
93518.3
93523.4
93519.4
93523.6
93520
93522.3
93518.7
94620.8
94613.6
94606.6
94592.7
94585.7
94574.1
94571.9
94567.3
94572.5
94575.2
94587.2
94594.5
94608.6
94615.5
94622.6
93782.5
93782.6
93782.6
93782.5
93782.2
93782.2
93781.8
93782.1
93781.9
93782.4
93782.4
93782.8
93782.9
93783.1
93783.1
94408.3
94407.3
94406.1
94403.9
94402.7
94400.6
94400.4
94399.4
94400.4
94400.8
94402.9
94404.1
94406.3
94407.4
94408.3
93923.7
93923.8
93924
93923.9
93924.1
93924
93924.1
93924
93924.2
93924.1
93924.3
93924.3
93924.3
93924.3
93924.3
94304.2
94304
94303.7
94303.3
94303.1
94302.7
94302.7
94302.4
94302.6
94302.6
94303
94303.2
94303.6
94303.8
94303.9
93995.1
93995.1
93995.3
93995.4
93995.6
93995.6
93995.7
93995.7
93995.8
93995.8
93995.8
93995.7
93995.7
93995.6
93995.6
94255.9
94255.8
94255.8
94255.7
94255.7
94255.6
94255.6
94255.5
94255.6
94255.5
94255.6
94255.6
94255.7
94255.7
94255.7
94024.7
94024.9
94025.2
94025.5
94025.6
94025.8
94025.9
94026
94026
94025.9
94025.9
94025.8
94025.7
94025.5
94025.4
SCALARS density float 1
LOOKUP_TABLE default
1.21459
1.21459
1.21459
1.21459
1.21459
1.21459
1.21459
1.21459
1.21459
1.21459
1.21459
1.21459
1.21459
1.21459
1.21459
1.21212
1.21212
1.21213
1.21213
1.21213
1.21213
1.21213
1.21213
1.21213
1.21213
1.21213
1.21213
1.21213
1.21212
1.21212
1.21514
1.21514
1.21515
1.21515
1.21515
1.21515
1.21515
1.21515
1.21515
1.21515
1.21515
1.21515
1.21515
1.21515
1.21514
1.21149
1.21149
1.21149
1.21149
1.21149
1.21149
1.21149
1.21148
1.21149
1.21148
1.21149
1.21149
1.21149
1.21149
1.21149
1.21586
1.21586
1.21586
1.21586
1.21586
1.21586
1.21586
1.21585
1.21586
1.21586
1.21586
1.21586
1.21586
1.21586
1.21586
1.21071
1.2107
1.2107
1.21068
1.21069
1.21066
1.21068
1.21066
1.21068
1.21066
1.21069
1.21068
1.2107
1.2107
1.21071
1.21681
1.2168
1.21679
1.21677
1.21677
1.21674
1.21674
1.21673
1.21674
1.21674
1.21677
1.21677
1.21679
1.2168
1.21681
1.20984
1.20977
1.20977
1.20964
1.20966
1.20953
1.20958
1.20949
1.20958
1.20953
1.20965
1.20963
1.20976
1.20976
1.20982
1.21817
1.21807
1.21804
1.21789
1.21785
1.21772
1.21772
1.21764
1.21772
1.21771
1.21785
1.21788
1.21803
1.21806
1.21816
1.2098
1.2092
1.20909
1.20832
1.20826
1.20769
1.20778
1.20746
1.20777
1.20767
1.20823
1.20829
1.20905
1.20915
1.20975
1.22087
1.2198
1.21963
1.21877
1.21856
1.21796
1.21794
1.21766
1.21794
1.21794
1.21855
1.21874
1.21962
1.21975
1.22086
1.2187
1.21073
1.20983
1.20555
1.20487
1.20285
1.20272
1.20201
1.2027
1.20281
1.20479
1.20546
1.2097
1.2106
1.21852
1.22568
1.22089
1.21786
1.21579
1.21475
1.21373
1.21346
1.21314
1.21346
1.21368
1.21475
1.21569
1.21788
1.22063
1.22568
1.16443
1.17507
1.17118
1.17779
1.17588
1.18
1.17819
1.18078
1.17819
1.18005
1.17588
1.1779
1.17116
1.17545
1.16499
1.17547
1.18818
1.18667
1.19424
1.19259
1.19743
1.19525
1.19841
1.19521
1.19746
1.19249
1.1943
1.1865
1.18853
1.17567
1.14719
1.16161
1.15949
1.16875
1.16651
1.17272
1.16983
1.17398
1.16977
1.17268
1.1663
1.16863
1.15914
1.16162
1.14701
1.18884
1.19645
1.19459
1.19968
1.19773
1.20148
1.19919
1.20207
1.19914
1.20151
1.19755
1.19971
1.19428
1.19673
1.18918
1.20182
1.19785
1.19694
1.19507
1.19393
1.19387
1.19285
1.19363
1.19283
1.19403
1.19385
1.19538
1.1968
1.19895
1.2031
1.23291
1.22537
1.22462
1.22043
1.21921
1.21744
1.2169
1.21658
1.21696
1.21755
1.21938
1.22059
1.22504
1.22621
1.23506
1.19884
1.20036
1.20087
1.20136
1.2011
1.20133
1.20107
1.20134
1.20107
1.20133
1.20104
1.2013
1.20089
1.20087
1.19985
1.2183
1.21826
1.21863
1.21807
1.21778
1.21725
1.21717
1.21701
1.2172
1.21728
1.21779
1.21807
1.21883
1.21892
1.21948
1.20373
1.20436
1.20502
1.20537
1.20539
1.20543
1.20541
1.20547
1.20542
1.20542
1.20533
1.20531
1.20515
1.20494
1.20473
1.21389
1.21438
1.21497
1.21519
1.2152
1.2151
1.2151
1.21508
1.21511
1.21509
1.21515
1.21515
1.21515
1.21499
1.21489
1.20626
1.20676
1.20738
1.20775
1.20784
1.20785
1.20786
1.20787
1.20786
1.20782
1.20777
1.20771
1.20757
1.20736
1.20721
1.21202
1.21248
1.21306
1.21342
1.21353
1.21352
1.21352
1.21352
1.21352
1.21349
1.21346
1.21339
1.21327
1.21308
1.21294
1.20765
1.20809
1.20866
1.20905
1.20919
1.20921
1.20921
1.20921
1.2092
1.20917
1.20912
1.20903
1.20889
1.20869
1.20856
1.21106
1.21146
1.21201
1.2124
1.21255
1.21256
1.21256
1.21256
1.21255
1.21252
1.21247
1.21239
1.21224
1.21206
1.21193
1.20852
1.20891
1.20945
1.20985
1.21002
1.21005
1.21005
1.21004
1.21003
1.21
1.20995
1.20986
1.2097
1.20952
1.20939
1.21027
1.21064
1.21115
1.21154
1.21172
1.21175
1.21175
1.21174
1.21173
1.2117
1.21165
1.21156
1.21141
1.21124
1.21112
1.20965
1.21
1.21051
1.21091
1.2111
1.21114
1.21113
1.21112
1.21111
1.21108
1.21103
1.21093
1.21078
1.21061
1.21049
SCALARS u-velocity float 1
LOOKUP_TABLE default
99.5968
99.5975
99.5984
99.5997
99.6006
99.6018
99.602
99.6027
99.6023
99.6024
99.6014
99.6008
99.5996
99.5989
99.5982
98.7381
98.7379
98.7376
98.7373
98.7372
98.7372
98.7372
98.7373
98.7374
98.7375
98.7376
98.7378
98.7382
98.7385
98.7387
99.6992
99.7012
99.7035
99.7072
99.709
99.7121
99.7124
99.7141
99.7129
99.713
99.7103
99.7089
99.7055
99.7035
99.7016
98.6091
98.6069
98.6039
98.6011
98.5992
98.5981
98.5975
98.5974
98.5976
98.5983
98.5995
98.6015
98.6042
98.6072
98.6094
99.8409
99.8498
99.859
99.8734
99.8798
99.891
99.8919
99.8978
99.8929
99.8929
99.8827
99.877
99.8634
99.8548
99.8464
98.4284
98.4178
98.4045
98.3953
98.3898
98.3887
98.3872
98.3885
98.3875
98.3893
98.3905
98.3962
98.405
98.418
98.4281
99.969
100.016
100.057
100.118
100.144
100.188
100.192
100.213
100.194
100.192
100.15
100.126
100.068
100.028
99.9835
98.1789
98.1312
98.0933
98.0887
98.0918
98.1137
98.1194
98.1344
98.1206
98.1166
98.095
98.0934
98.0962
98.132
98.1764
99.7856
100.076
100.231
100.494
100.601
100.772
100.798
100.864
100.803
100.781
100.616
100.511
100.255
100.108
99.8284
97.4462
97.3371
97.4531
97.6626
97.8102
98.0319
98.1163
98.2092
98.1218
98.0448
97.8235
97.6859
97.4721
97.3509
97.4297
97.8102
99.6653
100.014
101.225
101.723
102.272
102.458
102.593
102.467
102.288
101.754
101.259
100.059
99.725
97.9499
89.6067
94.6049
96.4238
98.2278
99.2467
100.394
100.81
101.122
100.826
100.432
99.2878
98.3003
96.5012
94.7582
89.528
90.0026
94.2065
101.737
104.029
106.533
106.986
108.03
107.779
108.046
107.018
106.588
104.122
101.866
94.2757
90.2833
123.813
120.3
120.883
119.447
119.759
118.284
118.685
117.82
118.685
118.259
119.766
119.375
120.831
120.353
124.985
134.83
130.577
127.565
124.975
123.931
122.166
121.981
121.206
121.998
122.185
123.977
124.975
127.636
131.038
136
137
133.26
130.023
127.581
126.38
124.925
124.551
123.996
124.582
124.978
126.468
127.674
130.263
133.893
138.146
117.888
120.317
118.2
118.468
117.437
117.545
116.817
117.06
116.839
117.546
117.483
118.419
118.336
120.852
120.137
89.3305
101.722
102.68
106.318
106.58
108.686
108.3
109.248
108.266
108.616
106.435
106.029
102.394
102.32
92.1831
79.292
90.7299
95.7015
99.1548
100.365
102.138
102.298
102.955
102.255
102.08
100.147
98.8838
95.4809
91.7897
81.7113
96.1396
98.7946
102.031
103.027
103.461
103.956
104.031
104.265
104.027
103.94
103.345
102.862
102.168
100.071
98.6665
91.1807
93.9151
97.04
98.5969
99.1581
99.6883
99.844
100.059
99.8355
99.648
98.9966
98.4068
97.2283
95.2215
93.5915
95.9988
98.0352
100.585
101.807
102.191
102.347
102.441
102.512
102.445
102.314
102.055
101.675
100.9
99.3878
98.3212
93.5185
95.4681
97.8921
99.2754
99.7343
99.8954
99.9804
100.047
99.9798
99.8435
99.578
99.1542
98.2621
96.8446
95.788
95.671
97.4403
99.6743
101.045
101.523
101.625
101.678
101.711
101.675
101.564
101.368
100.959
100.103
98.8208
97.8609
94.424
96.0991
98.2536
99.6803
100.222
100.338
100.375
100.398
100.365
100.262
100.06
99.6172
98.7275
97.4936
96.5741
95.4954
97.0604
99.1152
100.551
101.139
101.262
101.283
101.292
101.265
101.175
100.977
100.515
99.6254
98.4494
97.5847
94.9403
96.4268
98.4182
99.8754
100.515
100.66
100.67
100.67
100.644
100.56
100.352
99.8646
98.963
97.8206
96.9941
95.4295
96.8368
98.7573
100.217
100.897
101.064
101.068
101.058
101.033
100.953
100.738
100.231
99.3289
98.224
97.4374
95.2897
96.6328
98.4972
99.9622
100.682
100.872
100.873
100.854
100.829
100.751
100.525
99.9986
99.0942
98.0181
97.2638
95.4193
96.7032
98.5117
99.9733
100.725
100.939
100.941
100.915
100.889
100.81
100.573
100.032
99.1296
98.0822
97.3579
SCALARS v-velocity float 1
LOOKUP_TABLE default
-0.000390672
-0.000785167
-0.00127668
-0.00128384
-0.00129599
-0.000974775
-0.000654952
-0.00021732
0.000230386
0.000574816
0.000938786
0.000984064
0.00104865
0.00064309
0.000341305
0.000694868
0.00129352
0.00219725
0.00217309
0.0022518
0.00168979
0.00116456
0.000406698
-0.000369918
-0.00094252
-0.00158551
-0.00161511
-0.00177375
-0.00102969
-0.000603544
-0.000786533
-0.00179789
-0.00258869
-0.00256393
-0.00232731
-0.00166818
-0.000953768
-0.000123565
0.000716364
0.00143235
0.00210799
0.00236447
0.00242148
0.00168961
0.000743236
0.00326917
0.00605055
0.0100238
0.00973937
0.00985376
0.00723053
0.00472945
0.00127233
-0.00224848
-0.0048841
-0.00775259
-0.00796063
-0.00865223
-0.00518854
-0.00296323
-0.00252268
-0.00601129
-0.00753358
-0.00701327
-0.00554717
-0.00377902
-0.00182962
-9.57255e-06
0.0018432
0.00371327
0.00544404
0.00682847
0.00728398
0.00582361
0.00241348
0.0147819
0.0270301
0.0424903
0.0409105
0.0399161
0.0290595
0.0177701
0.0033595
-0.0112537
-0.0228141
-0.0342881
-0.0360398
-0.0385926
-0.0245146
-0.0138325
-0.00595883
-0.0107749
-0.00622027
-0.00160313
0.00419685
0.00473268
0.00441042
0.000746064
-0.00272453
-0.00359299
-0.00331405
0.0018466
0.00575913
0.0102234
0.00542793
0.0734304
0.119457
0.175272
0.171849
0.159031
0.117403
0.0662662
0.00823959
-0.0505066
-0.10184
-0.144958
-0.159248
-0.164491
-0.111888
-0.0700621
0.0151629
0.094682
0.167004
0.18321
0.189291
0.144913
0.0860908
0.00477828
-0.0752317
-0.137003
-0.182092
-0.179184
-0.166622
-0.0967574
-0.0191991
0.377017
0.509232
0.693655
0.732805
0.603432
0.468987
0.239087
0.0182676
-0.205518
-0.433779
-0.572053
-0.703287
-0.667804
-0.486816
-0.360743
1.11441
1.72005
2.02072
1.914
1.67598
1.20017
0.644491
0.0211947
-0.594283
-1.1619
-1.63496
-1.88713
-1.99733
-1.71701
-1.14534
-0.314536
3.35786
2.50697
3.06898
2.02404
1.69598
0.764844
0.0353917
-0.705194
-1.6282
-1.97106
-3.01115
-2.47801
-3.33682
0.352327
23.1014
19.9516
15.9936
12.9215
9.06181
6.13658
2.95629
0.0665541
-2.79557
-6.00058
-8.88029
-12.7845
-15.7685
-19.7787
-22.8726
25.1272
16.0649
13.1676
8.69112
6.62456
3.84358
2.0476
0.0752426
-1.90652
-3.69006
-6.48391
-8.52161
-13.0001
-15.8665
-25.2966
11.4079
7.10013
6.75469
4.15953
3.72786
2.00328
1.21556
0.06855
-1.13125
-1.87203
-3.67114
-4.03983
-6.75302
-7.06394
-11.6397
-8.23291
-8.56838
-4.69705
-4.81267
-2.3901
-2.10686
-0.685489
0.126032
0.864633
2.36095
2.5736
5.07829
4.89965
8.85669
8.46358
-20.8601
-18.1313
-12.1374
-10.0843
-6.22929
-4.40844
-1.84632
0.155809
2.06918
4.74338
6.48531
10.499
12.5123
18.7967
21.5355
-23.3209
-18.4085
-14.4352
-10.8759
-7.84839
-4.97715
-2.41924
0.188206
2.61576
5.37693
8.04769
11.3634
14.6751
19.1748
23.9036
-2.47021
-0.486902
-2.21489
-1.30864
-1.73397
-0.899722
-0.613387
0.0442242
0.637067
0.97394
1.73694
1.35707
2.18558
0.421471
2.3311
-1.9108
-2.21787
-2.69817
-2.20517
-2.03849
-1.28607
-0.706357
0.0564823
0.772588
1.38822
2.09875
2.29162
2.73501
2.17655
1.8882
-0.198871
-0.271798
-0.372174
-0.206195
-0.33645
-0.168243
-0.13057
0.0105832
0.135758
0.185364
0.347521
0.227886
0.372421
0.2261
0.173003
-0.177232
-0.366155
-0.433375
-0.343289
-0.370139
-0.243218
-0.144466
0.0118482
0.159137
0.264647
0.390492
0.364937
0.429189
0.321683
0.153351
-0.0393302
-0.106059
-0.0771457
-0.0227206
-0.0460658
-0.0304496
-0.0257888
0.00219791
0.0275715
0.0374396
0.0586078
0.0366438
0.0716862
0.0747508
0.0213
-0.0451457
-0.10945
-0.0903231
-0.0465237
-0.0485888
-0.0396894
-0.0277284
0.000337039
0.0276735
0.0443009
0.0583657
0.0538554
0.0774065
0.0763794
0.0271322
-0.0261031
-0.0592993
-0.0309365
0.00557239
0.00808973
0.000161853
-0.00478662
-0.000388944
0.00473888
0.00481742
0.00253315
0.0022949
0.0214245
0.0343255
0.012341
-0.0276442
-0.060062
-0.0389937
-0.0054749
0.00314447
-0.00281551
-0.00657389
-0.00230172
0.00333822
0.00467877
0.00335963
0.00751828
0.0245741
0.0338595
0.014105
-0.0214117
-0.0443459
-0.0246352
0.00515863
0.0147183
0.00727949
-0.000152726
-0.00132127
-0.00069513
-0.00293256
-0.00629812
-0.00155308
0.0134963
0.0233168
0.0105366
-0.0215357
-0.0453047
-0.0303904
-0.00289084
0.00897612
0.0043412
-0.001912
-0.00281173
-0.00169901
-0.00285832
-0.00428202
0.0020896
0.0161041
0.0235639
0.010846
-0.0180481
-0.0375372
-0.0244977
0.000289416
0.0122318
0.00831821
0.00114376
-0.0019269
-0.0028442
-0.00504106
-0.00635105
-4.93537e-05
0.0125269
0.0191777
0.00905901
-0.0186441
-0.0397013
-0.02915
-0.00522072
0.00812785
0.00625738
8.80187e-05
-0.00274067
-0.00335443
-0.00469416
-0.00455306
0.00269963
0.0149534
0.0203221
0.00944857
SCALARS Mach float 1
LOOKUP_TABLE default
30.0599
30.0603
30.0609
30.0617
30.0622
30.063
30.0631
30.0635
30.0633
30.0633
30.0627
30.0624
30.0616
30.0612
30.0608
29.5555
29.5554
29.5553
29.5551
29.5551
29.5551
29.5551
29.5551
29.5552
29.5552
29.5553
29.5554
29.5556
29.5558
29.556
30.1187
30.12
30.1213
30.1236
30.1247
30.1266
30.1268
30.1278
30.1271
30.1271
30.1255
30.1246
30.1226
30.1213
30.1202
29.4815
29.4802
29.4784
29.4768
29.4757
29.475
29.4747
29.4746
29.4747
29.4752
29.4759
29.477
29.4787
29.4804
29.4817
30.2008
30.2062
30.2118
30.2205
30.2245
30.2312
30.2318
30.2354
30.2324
30.2324
30.2262
30.2228
30.2145
30.2093
30.2042
29.3776
29.3713
29.3634
29.358
29.3547
29.3542
29.3533
29.3542
29.3535
29.3546
29.3552
29.3586
29.3637
29.3714
29.3774
30.2734
30.3017
30.3268
30.364
30.3796
30.4063
30.4089
30.4217
30.4103
30.409
30.3836
30.3691
30.3333
30.3095
30.2822
29.234
29.206
29.1836
29.1814
29.1833
29.1969
29.2001
29.2095
29.2008
29.1987
29.1852
29.1843
29.1854
29.2066
29.2326
30.1535
30.3296
30.4244
30.5852
30.6509
30.7556
30.7715
30.8121
30.7745
30.7611
30.6598
30.5958
30.4392
30.3493
30.1794
28.8059
28.7446
28.8135
28.9408
29.0278
29.1617
29.2109
29.2676
29.2142
29.1693
29.0357
28.9547
28.8249
28.753
28.7963
28.9462
30.0687
30.2871
31.0305
31.3366
31.6756
31.7882
31.8724
31.7934
31.6851
31.3551
31.0509
30.3139
30.105
29.0294
24.3605
27.2084
28.2441
29.3331
29.9277
30.6267
30.8735
31.066
30.8829
30.6495
29.9521
29.3754
28.2894
27.2967
24.3184
26.0603
28.0272
32.0861
33.2672
34.6179
34.7864
35.3815
35.1937
35.3894
34.8022
34.6441
33.3162
32.1441
28.0465
26.1811
48.7558
44.9304
45.1229
43.7262
43.8711
42.6848
42.9545
42.301
42.953
42.6625
43.8707
43.6643
45.0709
44.9509
49.6873
55.858
52.076
49.692
47.552
46.7597
45.3727
45.2424
44.6418
45.2545
45.3851
46.7945
47.5485
49.7481
52.4457
56.8573
57.6862
54.4915
51.7478
49.7507
48.7852
47.6169
47.3442
46.8895
47.3693
47.6614
48.8576
49.8316
51.949
55.0317
58.6844
43.5998
44.9939
42.9285
42.9457
42.0323
42.0233
41.474
41.6152
41.4923
42.0331
42.0759
42.9353
43.0573
45.4654
45.3376
25.8633
32.4614
32.6707
34.7142
34.7181
35.9829
35.6786
36.282
35.6597
35.9484
34.634
34.5578
32.5146
32.9219
27.5333
18.976
24.8789
27.7117
29.7618
30.5042
31.5945
31.6964
32.1058
31.6697
31.5588
30.3702
29.5976
27.5824
25.4669
20.1556
28.0556
29.6367
31.6273
32.242
32.5135
32.8167
32.8628
33.0081
32.8612
32.8075
32.4413
32.1388
31.7142
30.4132
29.5627
25.1466
26.6886
28.5048
29.4342
29.7726
30.0946
30.1897
30.3211
30.1845
30.0699
29.6747
29.3196
28.6163
27.4422
26.5049
27.9437
29.1492
30.6941
31.4485
31.6871
31.7832
31.8421
31.8864
31.8449
31.7625
31.602
31.3658
30.8885
29.9662
29.3242
26.4745
27.5965
29.0237
29.8547
30.1326
30.2306
30.2825
30.3233
30.2821
30.1989
30.0374
29.7811
29.2454
28.4048
27.7861
27.7432
28.7848
30.1275
30.9668
31.2614
31.3245
31.3574
31.3776
31.3557
31.2867
31.1652
30.9131
30.3892
29.6135
29.0391
26.9991
27.9711
29.2465
30.1069
30.4366
30.5072
30.5296
30.544
30.5235
30.4608
30.3375
30.0684
29.5318
28.7958
28.2535
27.6365
28.555
29.7839
30.658
31.0192
31.0952
31.1077
31.1135
31.0969
31.041
30.919
30.6359
30.094
29.3854
28.8698
27.2994
28.1658
29.3478
30.2282
30.6184
30.7071
30.7135
30.7131
30.6975
30.6456
30.5187
30.2215
29.6765
28.9931
28.5037
27.5978
28.4224
29.5675
30.4532
30.8702
30.9724
30.9749
30.9685
30.9534
30.904
30.7716
30.4614
29.9139
29.2498
28.7817
27.4989
28.2839
29.392
30.2778
30.7174
30.8339
30.8344
30.8226
30.8074
30.7594
30.6209
30.3
29.7525
29.1078
28.6601
27.6005
28.3524
29.4288
30.3135
30.7735
30.9051
30.9062
30.8902
30.8737
30.8251
30.6798
30.3492
29.8024
29.1739
28.7433
