# vtk DataFile Version 3.0
Structured Grid Example
ASCII
DATASET STRUCTURED_GRID
DIMENSIONS 15 30 1
POINTS 450 FLOAT
0.0833327 0.0333334 0
0.0833313 0.1 0
0.0833301 0.166667 0
0.083329 0.233333 0
0.0833281 0.3 0
0.0833274 0.366667 0
0.083327 0.433333 0
0.0833268 0.5 0
0.083327 0.566667 0
0.0833274 0.633333 0
0.0833281 0.7 0
0.083329 0.766667 0
0.0833301 0.833333 0
0.0833313 0.9 0
0.0833327 0.966667 0
0.249998 0.0333334 0
0.249993 0.1 0
0.249989 0.166667 0
0.249986 0.233334 0
0.249983 0.3 0
0.24998 0.366667 0
0.249979 0.433333 0
0.249979 0.5 0
0.249979 0.566667 0
0.24998 0.633333 0
0.249983 0.7 0
0.249986 0.766666 0
0.249989 0.833333 0
0.249993 0.9 0
0.249998 0.966667 0
0.416662 0.0333336 0
0.416654 0.100001 0
0.416646 0.166668 0
0.416639 0.233334 0
0.416633 0.300001 0
0.416628 0.366667 0
0.416626 0.433334 0
0.416625 0.5 0
0.416626 0.566666 0
0.416628 0.633333 0
0.416633 0.699999 0
0.416639 0.766666 0
0.416646 0.833332 0
0.416654 0.899999 0
0.416662 0.966666 0
0.583326 0.033334 0
0.58331 0.100002 0
0.583296 0.166669 0
0.583284 0.233336 0
0.583273 0.300003 0
0.583266 0.366669 0
0.583261 0.433335 0
0.583259 0.5 0
0.583261 0.566665 0
0.583266 0.633331 0
0.583273 0.699997 0
0.583284 0.766664 0
0.583296 0.833331 0
0.58331 0.899998 0
0.583326 0.966666 0
0.749987 0.0333351 0
0.749961 0.100005 0
0.749937 0.166674 0
0.749915 0.233342 0
0.749898 0.300008 0
0.749884 0.366673 0
0.749876 0.433337 0
0.749874 0.5 0
0.749876 0.566663 0
0.749884 0.633327 0
0.749898 0.699992 0
0.749915 0.766658 0
0.749937 0.833326 0
0.749961 0.899995 0
0.749987 0.966665 0
0.916644 0.033338 0
0.916601 0.100013 0
0.91656 0.166686 0
0.916524 0.233356 0
0.916494 0.300021 0
0.916472 0.366683 0
0.916458 0.433342 0
0.916454 0.5 0
0.916458 0.566658 0
0.916472 0.633317 0
0.916494 0.699979 0
0.916524 0.766644 0
0.91656 0.833314 0
0.916601 0.899987 0
0.916644 0.966662 0
1.0833 0.0333461 0
1.08322 0.100036 0
1.08315 0.166719 0
1.08309 0.233394 0
1.08304 0.300058 0
1.08301 0.366712 0
1.08298 0.433358 0
1.08298 0.5 0
1.08298 0.566642 0
1.08301 0.633288 0
1.08304 0.699942 0
1.08309 0.766606 0
1.08315 0.833281 0
1.08322 0.899964 0
1.0833 0.966654 0
1.24994 0.0333682 0
1.24981 0.100098 0
1.2497 0.16681 0
1.24959 0.233497 0
1.24951 0.300156 0
1.24945 0.366788 0
1.24942 0.433399 0
1.2494 0.5 0
1.24942 0.566601 0
1.24945 0.633212 0
1.24951 0.699844 0
1.24959 0.766503 0
1.2497 0.83319 0
1.24981 0.899902 0
1.24994 0.966632 0
1.41656 0.0334298 0
1.41634 0.10027 0
1.41615 0.16706 0
1.41598 0.233778 0
1.41585 0.300419 0
1.41575 0.36699 0
1.41569 0.433509 0
1.41567 0.5 0
1.41569 0.566491 0
1.41575 0.63301 0
1.41585 0.699581 0
1.41598 0.766222 0
1.41615 0.83294 0
1.41634 0.89973 0
1.41656 0.96657 0
1.58313 0.0336075 0
1.58275 0.10076 0
1.58242 0.167751 0
1.58215 0.234537 0
1.58195 0.301115 0
1.58181 0.367517 0
1.58173 0.433791 0
1.58171 0.5 0
1.58173 0.566209 0
1.58181 0.632483 0
1.58195 0.698885 0
1.58215 0.765463 0
1.58242 0.832249 0
1.58275 0.89924 0
1.58313 0.966392 0
1.74959 0.0341677 0
1.74885 0.102235 0
1.74829 0.169714 0
1.74791 0.236575 0
1.74766 0.302905 0
1.74751 0.368829 0
1.74744 0.434482 0
1.74741 0.5 0
1.74744 0.565518 0
1.74751 0.631171 0
1.74766 0.697095 0
1.74791 0.763425 0
1.74829 0.830286 0
1.74885 0.897765 0
1.74959 0.965832 0
1.91555 0.0363295 0
1.91388 0.107253 0
1.91312 0.175401 0
1.91283 0.241837 0
1.91276 0.307169 0
1.91277 0.371793 0
1.9128 0.435995 0
1.91281 0.5 0
1.9128 0.564005 0
1.91277 0.628207 0
1.91276 0.692831 0
1.91283 0.758163 0
1.91312 0.824599 0
1.91388 0.892747 0
1.91555 0.963671 0
2.07838 0.0591504 0
2.07417 0.125973 0
2.07554 0.190391 0
2.07663 0.253364 0
2.07743 0.315525 0
2.07798 0.377223 0
2.07829 0.438667 0
2.0784 0.5 0
2.07829 0.561333 0
2.07798 0.622777 0
2.07743 0.684475 0
2.07663 0.746636 0
2.07554 0.809609 0
2.07417 0.874027 0
2.07838 0.94085 0
2.24384 0.096456 0
2.23911 0.153168 0
2.24152 0.210396 0
2.24318 0.267878 0
2.24431 0.325632 0
2.24503 0.383617 0
2.24544 0.441767 0
2.24557 0.5 0
2.24544 0.558233 0
2.24503 0.616383 0
2.24431 0.674368 0
2.24318 0.732122 0
2.24152 0.789604 0
2.23911 0.846832 0
2.24384 0.903544 0
2.41462 0.118677 0
2.41292 0.170231 0
2.41356 0.223198 0
2.41406 0.277268 0
2.41444 0.332207 0
2.4147 0.387788 0
2.41485 0.44379 0
2.4149 0.5 0
2.41485 0.55621 0
2.4147 0.612212 0
2.41444 0.667793 0
2.41406 0.722732 0
2.41356 0.776802 0
2.41292 0.829769 0
2.41462 0.881323 0
2.58538 0.118677 0
2.58708 0.170231 0
2.58644 0.223198 0
2.58594 0.277268 0
2.58556 0.332207 0
2.5853 0.387788 0
2.58515 0.44379 0
2.5851 0.5 0
2.58515 0.55621 0
2.5853 0.612212 0
2.58556 0.667793 0
2.58594 0.722732 0
2.58644 0.776802 0
2.58708 0.829769 0
2.58538 0.881323 0
2.75616 0.096456 0
2.76089 0.153168 0
2.75848 0.210396 0
2.75682 0.267878 0
2.75569 0.325632 0
2.75497 0.383617 0
2.75456 0.441767 0
2.75443 0.5 0
2.75456 0.558233 0
2.75497 0.616383 0
2.75569 0.674368 0
2.75682 0.732122 0
2.75848 0.789604 0
2.76089 0.846832 0
2.75616 0.903544 0
2.92162 0.0591504 0
2.92583 0.125973 0
2.92446 0.190391 0
2.92337 0.253364 0
2.92257 0.315525 0
2.92202 0.377223 0
2.92171 0.438667 0
2.9216 0.5 0
2.92171 0.561333 0
2.92202 0.622777 0
2.92257 0.684475 0
2.92337 0.746636 0
2.92446 0.809609 0
2.92583 0.874027 0
2.92162 0.94085 0
3.08445 0.0363295 0
3.08612 0.107253 0
3.08688 0.175401 0
3.08717 0.241837 0
3.08724 0.307169 0
3.08723 0.371793 0
3.0872 0.435995 0
3.08719 0.5 0
3.0872 0.564005 0
3.08723 0.628207 0
3.08724 0.692831 0
3.08717 0.758163 0
3.08688 0.824599 0
3.08612 0.892747 0
3.08445 0.963671 0
3.25041 0.0341677 0
3.25115 0.102235 0
3.25171 0.169714 0
3.25209 0.236575 0
3.25234 0.302905 0
3.25249 0.368829 0
3.25256 0.434482 0
3.25259 0.5 0
3.25256 0.565518 0
3.25249 0.631171 0
3.25234 0.697095 0
3.25209 0.763425 0
3.25171 0.830286 0
3.25115 0.897765 0
3.25041 0.965832 0
3.41687 0.0336075 0
3.41725 0.10076 0
3.41758 0.167751 0
3.41785 0.234537 0
3.41805 0.301115 0
3.41819 0.367517 0
3.41827 0.433791 0
3.41829 0.5 0
3.41827 0.566209 0
3.41819 0.632483 0
3.41805 0.698885 0
3.41785 0.765463 0
3.41758 0.832249 0
3.41725 0.89924 0
3.41687 0.966392 0
3.58344 0.0334298 0
3.58366 0.10027 0
3.58385 0.16706 0
3.58402 0.233778 0
3.58415 0.300419 0
3.58425 0.36699 0
3.58431 0.433509 0
3.58433 0.5 0
3.58431 0.566491 0
3.58425 0.63301 0
3.58415 0.699581 0
3.58402 0.766222 0
3.58385 0.83294 0
3.58366 0.89973 0
3.58344 0.96657 0
3.75006 0.0333682 0
3.75019 0.100098 0
3.7503 0.16681 0
3.75041 0.233497 0
3.75049 0.300156 0
3.75055 0.366788 0
3.75058 0.433399 0
3.7506 0.5 0
3.75058 0.566601 0
3.75055 0.633212 0
3.75049 0.699844 0
3.75041 0.766503 0
3.7503 0.83319 0
3.75019 0.899902 0
3.75006 0.966632 0
3.9167 0.0333461 0
3.91678 0.100036 0
3.91685 0.166719 0
3.91691 0.233394 0
3.91696 0.300058 0
3.91699 0.366712 0
3.91702 0.433358 0
3.91702 0.5 0
3.91702 0.566642 0
3.91699 0.633288 0
3.91696 0.699942 0
3.91691 0.766606 0
3.91685 0.833281 0
3.91678 0.899964 0
3.9167 0.966654 0
4.08336 0.033338 0
4.0834 0.100013 0
4.08344 0.166686 0
4.08348 0.233356 0
4.08351 0.300021 0
4.08353 0.366683 0
4.08354 0.433342 0
4.08355 0.5 0
4.08354 0.566658 0
4.08353 0.633317 0
4.08351 0.699979 0
4.08348 0.766644 0
4.08344 0.833314 0
4.0834 0.899987 0
4.08336 0.966662 0
4.25001 0.0333351 0
4.25004 0.100005 0
4.25006 0.166674 0
4.25008 0.233342 0
4.2501 0.300008 0
4.25012 0.366673 0
4.25012 0.433337 0
4.25013 0.5 0
4.25012 0.566663 0
4.25012 0.633327 0
4.2501 0.699992 0
4.25008 0.766658 0
4.25006 0.833326 0
4.25004 0.899995 0
4.25001 0.966665 0
4.41667 0.033334 0
4.41669 0.100002 0
4.4167 0.166669 0
4.41672 0.233336 0
4.41673 0.300003 0
4.41673 0.366669 0
4.41674 0.433335 0
4.41674 0.5 0
4.41674 0.566665 0
4.41673 0.633331 0
4.41673 0.699997 0
4.41672 0.766664 0
4.4167 0.833331 0
4.41669 0.899998 0
4.41667 0.966666 0
4.58334 0.0333336 0
4.58335 0.100001 0
4.58335 0.166668 0
4.58336 0.233334 0
4.58337 0.300001 0
4.58337 0.366667 0
4.58337 0.433334 0
4.58338 0.5 0
4.58337 0.566666 0
4.58337 0.633333 0
4.58337 0.699999 0
4.58336 0.766666 0
4.58335 0.833332 0
4.58335 0.899999 0
4.58334 0.966666 0
4.75 0.0333334 0
4.75001 0.1 0
4.75001 0.166667 0
4.75001 0.233334 0
4.75002 0.3 0
4.75002 0.366667 0
4.75002 0.433333 0
4.75002 0.5 0
4.75002 0.566667 0
4.75002 0.633333 0
4.75002 0.7 0
4.75001 0.766666 0
4.75001 0.833333 0
4.75001 0.9 0
4.75 0.966667 0
4.91667 0.0333334 0
4.91667 0.1 0
4.91667 0.166667 0
4.91667 0.233333 0
4.91667 0.3 0
4.91667 0.366667 0
4.91667 0.433333 0
4.91667 0.5 0
4.91667 0.566667 0
4.91667 0.633333 0
4.91667 0.7 0
4.91667 0.766667 0
4.91667 0.833333 0
4.91667 0.9 0
4.91667 0.966667 0
POINT_DATA 450
SCALARS pressure float 1
LOOKUP_TABLE default
94472.9
94472.9
94472.9
94472.8
94472.8
94472.8
94472.7
94472.7
94472.7
94472.8
94472.8
94472.8
94472.8
94472.9
94472.9
94206.7
94206.6
94206.5
94206.2
94206.1
94205.8
94205.8
94205.6
94205.8
94205.7
94206
94206.1
94206.4
94206.4
94206.6
94535.5
94535.4
94535.3
94535.1
94534.9
94534.8
94534.6
94534.6
94534.6
94534.7
94534.9
94535.1
94535.2
94535.4
94535.4
94137.3
94137
94137.1
94136.4
94136.5
94135.7
94136.1
94135.4
94136.1
94135.6
94136.4
94136.2
94136.8
94136.8
94137
94613.3
94613.2
94613.1
94612.8
94612.7
94612.3
94612.3
94612.1
94612.3
94612.2
94612.6
94612.7
94613
94613.1
94613.2
94050.6
94049.4
94049.8
94047.1
94048
94045
94046.6
94044
94046.5
94044.7
94047.6
94046.6
94049.1
94048.7
94049.9
94717.4
94716.4
94715.9
94713.6
94713.2
94710.8
94711.2
94709.6
94711.1
94710.6
94713
94713.3
94715.6
94716
94717.1
93949.2
93941.6
93941.8
93927.8
93929.4
93915.5
93920.6
93910.5
93920.2
93914.8
93928.2
93926.4
93940.1
93939.7
93947.2
94879.3
94867.8
94863
94845.7
94841
94826.1
94826.6
94818.3
94826.4
94825.5
94840.4
94844.6
94862.1
94866.5
94878.1
93906.1
93840.3
93834.8
93754.7
93750.8
93690.1
93700.4
93666.2
93699.3
93688.2
93747.7
93751.1
93830
93835.2
93900.7
95280.8
95139.4
95101.3
94990.7
94958.6
94888
94883.6
94851.6
94883.1
94885.8
94957.4
94986.7
95099.4
95134.4
95278.2
94573.2
93812.5
93770.4
93352.7
93301.8
93103
93096.1
93024.5
93093.7
93099.4
93294.5
93344.7
93757.7
93798.2
94554.6
96101.5
95459.9
95050.8
94756
94614.1
94480.5
94442.8
94402.8
94442.2
94474.8
94612.9
94742.7
95050.5
95435.1
96102.3
89135
90212.7
89828.1
90519
90314.5
90746.8
90553.9
90827.7
90553.6
90751.5
90313.7
90531.2
89827.1
90239.3
89126.9
90209.9
91519.4
91410
92232.1
92070.5
92592.1
92363.3
92702.3
92359.9
92595.1
92059.8
92239.3
91390.9
91532.9
90174.1
87372
88849.5
88627.9
89612.5
89372.4
90029.5
89716.8
90161
89709.9
90026
89350.6
89602.4
88587.6
88824.5
87297.6
91766.7
92526.9
92295.4
92847.9
92625.6
93036.2
92780
93098
92774.3
93039.5
92607.1
92853.5
92259.1
92530.3
91703.2
93242
92724.1
92592.8
92411.5
92287.5
92288.7
92170
92260.6
92167.1
92305.5
92278.8
92449.5
92575
92796.1
93236.8
96862.5
95831
95650
95164.1
95022.8
94821.9
94754.8
94720.2
94761.4
94834.7
95044.8
95189.9
95693.6
95869.4
96962.3
93014
93088.3
93062.9
93091.9
93060.9
93083
93050.2
93078.7
93049.2
93084.4
93057.6
93093.1
93056.6
93085.9
93005.3
95123
95041
95000.7
94906.9
94870.2
94810
94796.8
94777.2
94799.1
94814.4
94877.1
94914.8
95011.1
95051
95136
93519.3
93522.8
93520.9
93523.7
93519.8
93523.1
93518.3
93522.8
93518.1
93523.3
93519.3
93523.6
93520.2
93522.6
93519
94620.8
94613.6
94606.6
94592.7
94585.7
94574.1
94572
94567.3
94572.5
94575.2
94587.2
94594.5
94608.6
94615.5
94622.7
93782.3
93782.4
93782.5
93782.5
93782.3
93782.4
93782.1
93782.4
93782.1
93782.5
93782.5
93782.8
93782.8
93783
93782.9
94407.9
94407
94405.9
94403.8
94402.8
94400.9
94400.7
94399.8
94400.8
94401.1
94403
94404.1
94406.1
94407.1
94407.9
93923.2
93923.4
93923.7
93923.9
93924.2
93924.3
93924.6
93924.5
93924.6
93924.5
93924.4
93924.2
93924.1
93923.9
93923.8
94303.7
94303.6
94303.4
94303.2
94303.2
94303
94303.1
94302.9
94303.1
94303
94303.2
94303.1
94303.3
94303.4
94303.4
93994.7
93994.8
93995.1
93995.4
93995.7
93995.9
93996.1
93996.1
93996.2
93996
93995.9
93995.6
93995.5
93995.3
93995.2
94255.6
94255.7
94255.7
94255.7
94255.8
94255.7
94255.8
94255.8
94255.8
94255.7
94255.7
94255.6
94255.6
94255.5
94255.5
94024.7
94024.9
94025.2
94025.5
94025.7
94025.8
94026
94026
94026.1
94026
94026
94025.8
94025.7
94025.5
94025.4
SCALARS density float 1
LOOKUP_TABLE default
1.21459
1.21459
1.21459
1.21459
1.21459
1.21459
1.21459
1.21459
1.21459
1.21459
1.21459
1.21459
1.21459
1.21459
1.21459
1.21213
1.21213
1.21213
1.21213
1.21213
1.21212
1.21212
1.21212
1.21212
1.21212
1.21213
1.21213
1.21213
1.21213
1.21213
1.21515
1.21515
1.21515
1.21515
1.21515
1.21514
1.21514
1.21514
1.21514
1.21514
1.21515
1.21515
1.21515
1.21515
1.21515
1.21149
1.21149
1.21149
1.21149
1.21149
1.21148
1.21149
1.21148
1.21149
1.21148
1.21149
1.21149
1.21149
1.21149
1.21149
1.21586
1.21586
1.21586
1.21586
1.21586
1.21586
1.21586
1.21585
1.21586
1.21586
1.21586
1.21586
1.21586
1.21586
1.21586
1.21071
1.2107
1.2107
1.21068
1.21069
1.21067
1.21068
1.21066
1.21068
1.21066
1.21069
1.21068
1.2107
1.21069
1.2107
1.2168
1.21679
1.21679
1.21677
1.21677
1.21675
1.21675
1.21673
1.21675
1.21675
1.21677
1.21677
1.21679
1.21679
1.2168
1.20983
1.20977
1.20977
1.20964
1.20966
1.20954
1.20959
1.20949
1.20958
1.20953
1.20965
1.20963
1.20976
1.20975
1.20982
1.21816
1.21806
1.21803
1.21789
1.21785
1.21772
1.21773
1.21765
1.21772
1.21772
1.21785
1.21788
1.21803
1.21805
1.21815
1.20979
1.20919
1.20909
1.20832
1.20826
1.20769
1.20778
1.20747
1.20778
1.20768
1.20823
1.20829
1.20905
1.20915
1.20975
1.22087
1.21979
1.21963
1.21877
1.21856
1.21796
1.21795
1.21766
1.21794
1.21795
1.21855
1.21874
1.21961
1.21975
1.22086
1.21869
1.21073
1.20983
1.20555
1.20487
1.20285
1.20272
1.20201
1.2027
1.20281
1.20479
1.20546
1.2097
1.2106
1.21852
1.22568
1.22089
1.21786
1.21579
1.21475
1.21373
1.21346
1.21314
1.21346
1.21368
1.21475
1.21569
1.21788
1.22063
1.22568
1.16443
1.17507
1.17118
1.17779
1.17588
1.18
1.17819
1.18078
1.17819
1.18005
1.17588
1.1779
1.17116
1.17545
1.16499
1.17547
1.18818
1.18667
1.19424
1.19259
1.19743
1.19525
1.19841
1.19521
1.19746
1.19249
1.1943
1.1865
1.18853
1.17568
1.14719
1.16161
1.1595
1.16875
1.16651
1.17271
1.16983
1.17398
1.16977
1.17268
1.1663
1.16863
1.15914
1.16162
1.14701
1.18884
1.19645
1.19459
1.19968
1.19773
1.20148
1.19919
1.20207
1.19914
1.20151
1.19755
1.19971
1.19428
1.19674
1.18919
1.20182
1.19785
1.19694
1.19507
1.19393
1.19387
1.19285
1.19363
1.19283
1.19403
1.19385
1.19538
1.1968
1.19895
1.2031
1.23291
1.22538
1.22462
1.22043
1.21921
1.21744
1.2169
1.21658
1.21696
1.21755
1.21938
1.22059
1.22504
1.22622
1.23506
1.19884
1.20037
1.20087
1.20136
1.2011
1.20132
1.20107
1.20134
1.20106
1.20133
1.20103
1.2013
1.20089
1.20087
1.19985
1.21831
1.21826
1.21864
1.21807
1.21777
1.21725
1.21717
1.21701
1.21719
1.21728
1.21779
1.21807
1.21884
1.21893
1.21949
1.20374
1.20436
1.20502
1.20537
1.20539
1.20543
1.20541
1.20547
1.20541
1.20541
1.20533
1.20531
1.20515
1.20494
1.20473
1.21389
1.21438
1.21497
1.21519
1.2152
1.2151
1.2151
1.21508
1.21511
1.21509
1.21515
1.21515
1.21515
1.21499
1.21489
1.20626
1.20676
1.20738
1.20775
1.20784
1.20785
1.20786
1.20788
1.20786
1.20783
1.20778
1.20771
1.20756
1.20736
1.20721
1.21201
1.21248
1.21306
1.21342
1.21353
1.21352
1.21353
1.21353
1.21352
1.21349
1.21346
1.21339
1.21327
1.21308
1.21294
1.20765
1.20808
1.20866
1.20905
1.20919
1.20921
1.20921
1.20922
1.20921
1.20917
1.20912
1.20903
1.20888
1.20869
1.20855
1.21105
1.21146
1.21201
1.2124
1.21255
1.21257
1.21256
1.21256
1.21255
1.21252
1.21247
1.21239
1.21224
1.21206
1.21193
1.20851
1.20891
1.20945
1.20985
1.21003
1.21006
1.21005
1.21005
1.21004
1.21001
1.20995
1.20986
1.2097
1.20952
1.20939
1.21027
1.21064
1.21115
1.21154
1.21172
1.21176
1.21175
1.21174
1.21173
1.2117
1.21165
1.21156
1.21141
1.21123
1.21112
1.20965
1.21
1.21051
1.21091
1.2111
1.21114
1.21113
1.21112
1.21111
1.21108
1.21103
1.21093
1.21078
1.21061
1.21049
SCALARS u-velocity float 1
LOOKUP_TABLE default
99.5967
99.5975
99.5983
99.5997
99.6006
99.6018
99.6021
99.6028
99.6024
99.6024
99.6014
99.6008
99.5996
99.5988
99.5981
98.7377
98.7375
98.7374
98.7373
98.7374
98.7375
98.7376
98.7377
98.7378
98.7378
98.7377
98.7378
98.7379
98.7381
98.7383
99.6987
99.7008
99.7032
99.7071
99.7092
99.7124
99.7129
99.7147
99.7134
99.7134
99.7105
99.7088
99.7052
99.7031
99.7011
98.6086
98.6065
98.6037
98.601
98.5993
98.5983
98.5979
98.5978
98.598
98.5986
98.5997
98.6014
98.604
98.6069
98.6089
99.8407
99.8496
99.8588
99.8733
99.8799
99.8911
99.8921
99.8981
99.8931
99.8931
99.8828
99.877
99.8633
99.8546
99.8461
98.4285
98.4178
98.4045
98.3953
98.3898
98.3887
98.3872
98.3884
98.3874
98.3893
98.3905
98.3962
98.4051
98.418
98.4282
99.9693
100.016
100.057
100.118
100.144
100.187
100.191
100.212
100.194
100.192
100.15
100.126
100.068
100.029
99.9838
98.1795
98.1316
98.0936
98.0887
98.0916
98.1133
98.1189
98.1338
98.1201
98.1162
98.0948
98.0934
98.0965
98.1325
98.1769
99.7862
100.076
100.231
100.494
100.601
100.771
100.797
100.863
100.802
100.78
100.616
100.511
100.256
100.108
99.829
97.4468
97.3375
97.4533
97.6626
97.81
98.0315
98.1158
98.2086
98.1213
98.0444
97.8234
97.686
97.4724
97.3513
97.4303
97.8105
99.6655
100.014
101.225
101.723
102.272
102.458
102.593
102.467
102.288
101.754
101.259
100.059
99.7253
97.9502
89.6068
94.6049
96.4239
98.2278
99.2466
100.394
100.81
101.122
100.826
100.432
99.2878
98.3003
96.5013
94.7582
89.5281
90.0024
94.2065
101.737
104.029
106.533
106.986
108.03
107.779
108.046
107.018
106.589
104.122
101.866
94.2756
90.2831
123.812
120.3
120.883
119.447
119.759
118.284
118.685
117.82
118.685
118.259
119.766
119.375
120.831
120.353
124.985
134.83
130.577
127.565
124.975
123.931
122.167
121.982
121.206
121.998
122.185
123.978
124.975
127.636
131.038
136
137
133.26
130.023
127.581
126.38
124.925
124.551
123.996
124.582
124.978
126.468
127.674
130.263
133.893
138.146
117.888
120.317
118.2
118.468
117.437
117.545
116.817
117.06
116.839
117.546
117.483
118.419
118.336
120.852
120.137
89.3303
101.722
102.68
106.318
106.58
108.686
108.3
109.248
108.267
108.616
106.435
106.029
102.394
102.32
92.1829
79.2917
90.7296
95.7013
99.1548
100.366
102.138
102.298
102.956
102.255
102.081
100.147
98.8837
95.4807
91.7894
81.7109
96.1391
98.7942
102.03
103.027
103.461
103.956
104.031
104.265
104.028
103.94
103.345
102.862
102.168
100.07
98.666
91.1804
93.9147
97.0398
98.5968
99.1582
99.6886
99.8444
100.06
99.8359
99.6482
98.9967
98.4067
97.2281
95.2211
93.5911
95.9986
98.035
100.585
101.807
102.192
102.347
102.441
102.512
102.445
102.314
102.055
101.675
100.9
99.3876
98.3209
93.5185
95.4681
97.8922
99.2755
99.7343
99.8954
99.9805
100.047
99.9799
99.8435
99.5781
99.1543
98.2621
96.8446
95.788
95.6713
97.4405
99.6744
101.046
101.523
101.625
101.678
101.711
101.675
101.564
101.368
100.959
100.103
98.821
97.8611
94.4243
96.0994
98.2538
99.6803
100.222
100.338
100.374
100.398
100.364
100.262
100.06
99.6173
98.7276
97.4939
96.5744
95.4958
97.0607
99.1154
100.551
101.139
101.262
101.282
101.292
101.265
101.174
100.977
100.515
99.6255
98.4497
97.5851
94.9406
96.4271
98.4183
99.8754
100.515
100.66
100.67
100.669
100.644
100.56
100.352
99.8646
98.9632
97.8209
96.9945
95.4297
96.837
98.7574
100.217
100.897
101.064
101.068
101.057
101.033
100.953
100.738
100.231
99.329
98.2241
97.4376
95.2897
96.6329
98.4972
99.9622
100.682
100.872
100.873
100.854
100.829
100.751
100.525
99.9986
99.0943
98.0182
97.2639
95.4192
96.7031
98.5116
99.9733
100.725
100.939
100.941
100.916
100.889
100.81
100.573
100.032
99.1296
98.0821
97.3578
SCALARS v-velocity float 1
LOOKUP_TABLE default
-0.000430963
-0.000886343
-0.00143286
-0.00145939
-0.00146684
-0.00110759
-0.000729186
-0.000219403
0.000300566
0.000703824
0.00110629
0.00115684
0.00120276
0.000742988
0.000381143
0.000722582
0.00137973
0.00230631
0.00231306
0.00237028
0.00179074
0.00121204
0.000401497
-0.000427578
-0.00105297
-0.00171243
-0.00176203
-0.00188805
-0.00111905
-0.000632434
-0.000623521
-0.00136044
-0.00195345
-0.00182139
-0.00163503
-0.00111598
-0.000661939
-0.000129692
0.0004125
0.000868967
0.00140573
0.00161376
0.00178003
0.00124846
0.00057883
0.00354179
0.00676786
0.0110855
0.0109643
0.0110106
0.0081444
0.00521862
0.00126483
-0.00275244
-0.00581168
-0.00892168
-0.00919556
-0.00972157
-0.00591039
-0.00323757
-0.00216176
-0.00507337
-0.00612715
-0.00540544
-0.00401471
-0.00257678
-0.00117996
-1.65923e-05
0.00117964
0.00249822
0.00390004
0.0052113
0.00587036
0.00488146
0.00205093
0.0151789
0.02805
0.0440387
0.0426653
0.0416032
0.030374
0.0184861
0.0033534
-0.0119818
-0.0241396
-0.0359853
-0.0378027
-0.0401473
-0.0255382
-0.0142308
-0.00561623
-0.00990736
-0.00488193
-0.000104157
0.00565435
0.00585753
0.00502941
0.000741888
-0.00335197
-0.00472546
-0.00477855
0.000342095
0.00441641
0.00935346
0.00508434
0.0736739
0.120059
0.176226
0.172897
0.160069
0.118191
0.0667073
0.0082379
-0.0509513
-0.102632
-0.145999
-0.160298
-0.165447
-0.112491
-0.0703061
0.0152511
0.0948807
0.167357
0.183566
0.189673
0.145184
0.0862534
0.00477928
-0.0753927
-0.137272
-0.182473
-0.179539
-0.166974
-0.0969555
-0.0192871
0.376966
0.509067
0.693459
0.732535
0.603214
0.468788
0.238995
0.0182714
-0.205419
-0.433573
-0.571829
-0.703012
-0.667604
-0.486649
-0.36069
1.11425
1.71959
2.02007
1.91322
1.67527
1.19959
0.64419
0.0212015
-0.593969
-1.16131
-1.63424
-1.88634
-1.99667
-1.71655
-1.14517
-0.314761
3.35726
2.50611
3.06798
2.02311
1.69524
0.764455
0.0354004
-0.704789
-1.62745
-1.97011
-3.01014
-2.47713
-3.33622
0.352553
23.1011
19.951
15.9928
12.9205
9.06095
6.13591
2.95594
0.0665634
-2.7952
-5.99989
-8.87941
-12.7835
-15.7677
-19.7781
-22.8723
25.127
16.0645
13.1671
8.69058
6.62406
3.8432
2.0474
0.075253
-1.9063
-3.68966
-6.48338
-8.52105
-12.9995
-15.8662
-25.2964
11.4078
7.09994
6.7544
4.15922
3.72756
2.00306
1.21544
0.0685612
-1.13111
-1.87179
-3.67082
-4.0395
-6.75271
-7.06374
-11.6396
-8.23296
-8.56852
-4.69727
-4.81291
-2.39034
-2.10703
-0.685582
0.126044
0.864749
2.36115
2.57386
5.07855
4.89988
8.85684
8.46364
-20.8602
-18.1314
-12.1376
-10.0845
-6.22949
-4.40859
-1.84639
0.155823
2.06929
4.74355
6.48553
10.4992
12.5125
18.7968
21.5356
-23.3209
-18.4085
-14.4353
-10.876
-7.84854
-4.97726
-2.4193
0.188221
2.61584
5.37706
8.04786
11.3635
14.6753
19.1748
23.9036
-2.47016
-0.486779
-2.21476
-1.30847
-1.73384
-0.899606
-0.613327
0.0442383
0.637036
0.97385
1.73683
1.35692
2.18546
0.421359
2.33105
-1.91064
-2.21748
-2.69761
-2.20452
-2.03789
-1.28559
-0.706099
0.0564963
0.772358
1.38777
2.09818
2.29098
2.73446
2.17616
1.88805
-0.19863
-0.271161
-0.371238
-0.205107
-0.335427
-0.167426
-0.130126
0.0105964
0.13534
0.184572
0.34652
0.226815
0.371497
0.22547
0.172764
-0.176911
-0.365313
-0.432119
-0.341841
-0.368765
-0.24213
-0.143873
0.0118598
0.158566
0.26358
0.389137
0.363504
0.427943
0.320845
0.153032
-0.0389755
-0.105136
-0.0757523
-0.0211247
-0.0445382
-0.0292474
-0.0251302
0.00220741
0.0269316
0.0362544
0.0570953
0.0350592
0.0703002
0.0738299
0.0209458
-0.044812
-0.108589
-0.08901
-0.0450318
-0.0471493
-0.0385648
-0.0271092
0.000343694
0.0270676
0.0431881
0.0569367
0.0523709
0.0760978
0.0755194
0.0267985
-0.0258374
-0.0586224
-0.0298894
0.00674887
0.00923667
0.0010494
-0.00429437
-0.000385233
0.00425416
0.00393641
0.00139205
0.00112228
0.0203794
0.0336485
0.0120751
-0.027478
-0.0596494
-0.0383391
-0.0047548
0.00385968
-0.00227175
-0.00626805
-0.00230082
0.00303445
0.00413659
0.00264599
0.00679895
0.0239198
0.0334466
0.0139387
-0.0213466
-0.0441975
-0.0243794
0.00542032
0.0149947
0.00747733
-3.5902e-05
-0.00132253
-0.000814095
-0.00313256
-0.00657617
-0.00181604
0.01324
0.0231686
0.0104716
-0.0215517
-0.0453632
-0.0304535
-0.00298964
0.00890208
0.00426646
-0.00194597
-0.00281451
-0.00167019
-0.00278839
-0.00421181
0.00218577
0.0161663
0.0236227
0.0108623
-0.0180997
-0.0376815
-0.0246999
3.92951e-05
0.0120059
0.00812879
0.00104493
-0.00192977
-0.00275078
-0.00485664
-0.00612916
0.000198199
0.0127282
0.0193226
0.009111
-0.01868
-0.0397967
-0.0292898
-0.00538888
0.00797176
0.00612974
2.03077e-05
-0.00274198
-0.00328922
-0.0045689
-0.00439897
0.00286658
0.0150932
0.0204183
0.00948487
SCALARS Mach float 1
LOOKUP_TABLE default
30.0598
30.0603
30.0608
30.0617
30.0622
30.063
30.0632
30.0636
30.0633
30.0633
30.0627
30.0624
30.0616
30.0611
30.0607
29.5553
29.5552
29.5551
29.5551
29.5552
29.5553
29.5554
29.5554
29.5554
29.5554
29.5554
29.5554
29.5555
29.5556
29.5557
30.1184
30.1197
30.1212
30.1235
30.1248
30.1268
30.1271
30.1282
30.1274
30.1273
30.1256
30.1246
30.1224
30.1211
30.1199
29.4812
29.48
29.4783
29.4768
29.4757
29.4752
29.4749
29.4749
29.475
29.4754
29.476
29.477
29.4785
29.4802
29.4814
30.2007
30.2061
30.2117
30.2205
30.2245
30.2313
30.2319
30.2355
30.2325
30.2325
30.2262
30.2227
30.2144
30.2092
30.204
29.3776
29.3713
29.3634
29.358
29.3547
29.3542
29.3533
29.3541
29.3534
29.3546
29.3552
29.3586
29.3638
29.3715
29.3775
30.2736
30.3019
30.3269
30.364
30.3795
30.4062
30.4087
30.4215
30.4101
30.4088
30.3835
30.3691
30.3334
30.3097
30.2825
29.2344
29.2063
29.1837
29.1815
29.1831
29.1967
29.1997
29.2091
29.2005
29.1984
29.1851
29.1843
29.1855
29.2069
29.233
30.1539
30.33
30.4246
30.5852
30.6508
30.7553
30.7711
30.8117
30.7741
30.7608
30.6597
30.5958
30.4394
30.3497
30.1799
28.8062
28.7449
28.8137
28.9409
29.0277
29.1614
29.2106
29.2672
29.2139
29.1691
29.0356
28.9547
28.8251
28.7533
28.7967
28.9464
30.0689
30.2872
31.0305
31.3365
31.6754
31.7879
31.8721
31.7932
31.6849
31.355
31.0509
30.3141
30.1052
29.0297
24.3605
27.2084
28.2441
29.3331
29.9276
30.6267
30.8734
31.0659
30.8828
30.6495
29.952
29.3754
28.2894
27.2967
24.3185
26.0601
28.0271
32.086
33.2672
34.618
34.7864
35.3816
35.1939
35.3895
34.8023
34.6441
33.3161
32.144
28.0464
26.181
48.7556
44.9303
45.1228
43.7262
43.8713
42.685
42.9548
42.3013
42.9533
42.6627
43.8708
43.6643
45.0708
44.9508
49.6871
55.8579
52.076
49.6919
47.552
46.7597
45.3728
45.2425
44.6419
45.2547
45.3852
46.7946
47.5485
49.7481
52.4457
56.8573
57.6862
54.4914
51.7478
49.7507
48.7852
47.6169
47.3442
46.8895
47.3693
47.6614
48.8576
49.8316
51.949
55.0317
58.6843
43.5998
44.9938
42.9285
42.9457
42.0323
42.0233
41.474
41.6152
41.4923
42.0331
42.0759
42.9353
43.0573
45.4653
45.3376
25.8631
32.4613
32.6707
34.7141
34.7181
35.9829
35.6788
36.2821
35.6599
35.9484
34.634
34.5578
32.5145
32.9218
27.5331
18.9758
24.8787
27.7116
29.7617
30.5042
31.5946
31.6967
32.1061
31.6699
31.5589
30.3703
29.5976
27.5822
25.4667
20.1554
28.0553
29.6365
31.6271
32.2419
32.5136
32.8169
32.8631
33.0084
32.8614
32.8077
32.4414
32.1388
31.7141
30.413
29.5624
25.1464
26.6884
28.5046
29.4341
29.7726
30.0947
30.1899
30.3213
30.1848
30.07
29.6748
29.3195
28.6161
27.442
26.5047
27.9436
29.1491
30.6941
31.4485
31.6872
31.7833
31.8423
31.8866
31.8451
31.7627
31.6021
31.3658
30.8884
29.9661
29.3241
26.4745
27.5965
29.0238
29.8547
30.1326
30.2307
30.2825
30.3234
30.2821
30.199
30.0374
29.7811
29.2454
28.4048
27.7862
27.7434
28.7849
30.1276
30.9669
31.2614
31.3245
31.3573
31.3775
31.3556
31.2867
31.1652
30.9131
30.3893
29.6136
29.0392
26.9994
27.9712
29.2467
30.1069
30.4366
30.5071
30.5293
30.5438
30.5233
30.4607
30.3374
30.0684
29.5319
28.796
28.2537
27.6368
28.5552
29.784
30.658
31.019
31.095
31.1074
31.1132
31.0966
31.0407
30.9188
30.6359
30.0941
29.3856
28.87
27.2997
28.166
29.3479
30.2282
30.6183
30.7069
30.7132
30.7128
30.6972
30.6454
30.5185
30.2215
29.6766
28.9933
28.5039
27.598
28.4226
29.5676
30.4532
30.8701
30.9723
30.9747
30.9683
30.9532
30.9039
30.7715
30.4614
29.9139
29.25
28.7819
27.499
28.2839
29.392
30.2778
30.7174
30.8339
30.8343
30.8226
30.8073
30.7594
30.6209
30.3
29.7526
29.1078
28.6602
27.6005
28.3523
29.4288
30.3135
30.7735
30.9052
30.9063
30.8903
30.8738
30.8252
30.6799
30.3492
29.8024
29.1739
28.7433
