# vtk DataFile Version 3.0
Structured Grid Example
ASCII
DATASET STRUCTURED_GRID
DIMENSIONS 15 30 1
POINTS 450 FLOAT
0.0833327 0.0333334 0
0.0833313 0.1 0
0.0833301 0.166667 0
0.083329 0.233333 0
0.0833281 0.3 0
0.0833274 0.366667 0
0.083327 0.433333 0
0.0833268 0.5 0
0.083327 0.566667 0
0.0833274 0.633333 0
0.0833281 0.7 0
0.083329 0.766667 0
0.0833301 0.833333 0
0.0833313 0.9 0
0.0833327 0.966667 0
0.249998 0.0333334 0
0.249993 0.1 0
0.249989 0.166667 0
0.249986 0.233334 0
0.249983 0.3 0
0.24998 0.366667 0
0.249979 0.433333 0
0.249979 0.5 0
0.249979 0.566667 0
0.24998 0.633333 0
0.249983 0.7 0
0.249986 0.766666 0
0.249989 0.833333 0
0.249993 0.9 0
0.249998 0.966667 0
0.416662 0.0333336 0
0.416654 0.100001 0
0.416646 0.166668 0
0.416639 0.233334 0
0.416633 0.300001 0
0.416628 0.366667 0
0.416626 0.433334 0
0.416625 0.5 0
0.416626 0.566666 0
0.416628 0.633333 0
0.416633 0.699999 0
0.416639 0.766666 0
0.416646 0.833332 0
0.416654 0.899999 0
0.416662 0.966666 0
0.583326 0.033334 0
0.58331 0.100002 0
0.583296 0.166669 0
0.583284 0.233336 0
0.583273 0.300003 0
0.583266 0.366669 0
0.583261 0.433335 0
0.583259 0.5 0
0.583261 0.566665 0
0.583266 0.633331 0
0.583273 0.699997 0
0.583284 0.766664 0
0.583296 0.833331 0
0.58331 0.899998 0
0.583326 0.966666 0
0.749987 0.0333351 0
0.749961 0.100005 0
0.749937 0.166674 0
0.749915 0.233342 0
0.749898 0.300008 0
0.749884 0.366673 0
0.749876 0.433337 0
0.749874 0.5 0
0.749876 0.566663 0
0.749884 0.633327 0
0.749898 0.699992 0
0.749915 0.766658 0
0.749937 0.833326 0
0.749961 0.899995 0
0.749987 0.966665 0
0.916644 0.033338 0
0.916601 0.100013 0
0.91656 0.166686 0
0.916524 0.233356 0
0.916494 0.300021 0
0.916472 0.366683 0
0.916458 0.433342 0
0.916454 0.5 0
0.916458 0.566658 0
0.916472 0.633317 0
0.916494 0.699979 0
0.916524 0.766644 0
0.91656 0.833314 0
0.916601 0.899987 0
0.916644 0.966662 0
1.0833 0.0333461 0
1.08322 0.100036 0
1.08315 0.166719 0
1.08309 0.233394 0
1.08304 0.300058 0
1.08301 0.366712 0
1.08298 0.433358 0
1.08298 0.5 0
1.08298 0.566642 0
1.08301 0.633288 0
1.08304 0.699942 0
1.08309 0.766606 0
1.08315 0.833281 0
1.08322 0.899964 0
1.0833 0.966654 0
1.24994 0.0333682 0
1.24981 0.100098 0
1.2497 0.16681 0
1.24959 0.233497 0
1.24951 0.300156 0
1.24945 0.366788 0
1.24942 0.433399 0
1.2494 0.5 0
1.24942 0.566601 0
1.24945 0.633212 0
1.24951 0.699844 0
1.24959 0.766503 0
1.2497 0.83319 0
1.24981 0.899902 0
1.24994 0.966632 0
1.41656 0.0334298 0
1.41634 0.10027 0
1.41615 0.16706 0
1.41598 0.233778 0
1.41585 0.300419 0
1.41575 0.36699 0
1.41569 0.433509 0
1.41567 0.5 0
1.41569 0.566491 0
1.41575 0.63301 0
1.41585 0.699581 0
1.41598 0.766222 0
1.41615 0.83294 0
1.41634 0.89973 0
1.41656 0.96657 0
1.58313 0.0336075 0
1.58275 0.10076 0
1.58242 0.167751 0
1.58215 0.234537 0
1.58195 0.301115 0
1.58181 0.367517 0
1.58173 0.433791 0
1.58171 0.5 0
1.58173 0.566209 0
1.58181 0.632483 0
1.58195 0.698885 0
1.58215 0.765463 0
1.58242 0.832249 0
1.58275 0.89924 0
1.58313 0.966392 0
1.74959 0.0341677 0
1.74885 0.102235 0
1.74829 0.169714 0
1.74791 0.236575 0
1.74766 0.302905 0
1.74751 0.368829 0
1.74744 0.434482 0
1.74741 0.5 0
1.74744 0.565518 0
1.74751 0.631171 0
1.74766 0.697095 0
1.74791 0.763425 0
1.74829 0.830286 0
1.74885 0.897765 0
1.74959 0.965832 0
1.91555 0.0363295 0
1.91388 0.107253 0
1.91312 0.175401 0
1.91283 0.241837 0
1.91276 0.307169 0
1.91277 0.371793 0
1.9128 0.435995 0
1.91281 0.5 0
1.9128 0.564005 0
1.91277 0.628207 0
1.91276 0.692831 0
1.91283 0.758163 0
1.91312 0.824599 0
1.91388 0.892747 0
1.91555 0.963671 0
2.07838 0.0591504 0
2.07417 0.125973 0
2.07554 0.190391 0
2.07663 0.253364 0
2.07743 0.315525 0
2.07798 0.377223 0
2.07829 0.438667 0
2.0784 0.5 0
2.07829 0.561333 0
2.07798 0.622777 0
2.07743 0.684475 0
2.07663 0.746636 0
2.07554 0.809609 0
2.07417 0.874027 0
2.07838 0.94085 0
2.24384 0.096456 0
2.23911 0.153168 0
2.24152 0.210396 0
2.24318 0.267878 0
2.24431 0.325632 0
2.24503 0.383617 0
2.24544 0.441767 0
2.24557 0.5 0
2.24544 0.558233 0
2.24503 0.616383 0
2.24431 0.674368 0
2.24318 0.732122 0
2.24152 0.789604 0
2.23911 0.846832 0
2.24384 0.903544 0
2.41462 0.118677 0
2.41292 0.170231 0
2.41356 0.223198 0
2.41406 0.277268 0
2.41444 0.332207 0
2.4147 0.387788 0
2.41485 0.44379 0
2.4149 0.5 0
2.41485 0.55621 0
2.4147 0.612212 0
2.41444 0.667793 0
2.41406 0.722732 0
2.41356 0.776802 0
2.41292 0.829769 0
2.41462 0.881323 0
2.58538 0.118677 0
2.58708 0.170231 0
2.58644 0.223198 0
2.58594 0.277268 0
2.58556 0.332207 0
2.5853 0.387788 0
2.58515 0.44379 0
2.5851 0.5 0
2.58515 0.55621 0
2.5853 0.612212 0
2.58556 0.667793 0
2.58594 0.722732 0
2.58644 0.776802 0
2.58708 0.829769 0
2.58538 0.881323 0
2.75616 0.096456 0
2.76089 0.153168 0
2.75848 0.210396 0
2.75682 0.267878 0
2.75569 0.325632 0
2.75497 0.383617 0
2.75456 0.441767 0
2.75443 0.5 0
2.75456 0.558233 0
2.75497 0.616383 0
2.75569 0.674368 0
2.75682 0.732122 0
2.75848 0.789604 0
2.76089 0.846832 0
2.75616 0.903544 0
2.92162 0.0591504 0
2.92583 0.125973 0
2.92446 0.190391 0
2.92337 0.253364 0
2.92257 0.315525 0
2.92202 0.377223 0
2.92171 0.438667 0
2.9216 0.5 0
2.92171 0.561333 0
2.92202 0.622777 0
2.92257 0.684475 0
2.92337 0.746636 0
2.92446 0.809609 0
2.92583 0.874027 0
2.92162 0.94085 0
3.08445 0.0363295 0
3.08612 0.107253 0
3.08688 0.175401 0
3.08717 0.241837 0
3.08724 0.307169 0
3.08723 0.371793 0
3.0872 0.435995 0
3.08719 0.5 0
3.0872 0.564005 0
3.08723 0.628207 0
3.08724 0.692831 0
3.08717 0.758163 0
3.08688 0.824599 0
3.08612 0.892747 0
3.08445 0.963671 0
3.25041 0.0341677 0
3.25115 0.102235 0
3.25171 0.169714 0
3.25209 0.236575 0
3.25234 0.302905 0
3.25249 0.368829 0
3.25256 0.434482 0
3.25259 0.5 0
3.25256 0.565518 0
3.25249 0.631171 0
3.25234 0.697095 0
3.25209 0.763425 0
3.25171 0.830286 0
3.25115 0.897765 0
3.25041 0.965832 0
3.41687 0.0336075 0
3.41725 0.10076 0
3.41758 0.167751 0
3.41785 0.234537 0
3.41805 0.301115 0
3.41819 0.367517 0
3.41827 0.433791 0
3.41829 0.5 0
3.41827 0.566209 0
3.41819 0.632483 0
3.41805 0.698885 0
3.41785 0.765463 0
3.41758 0.832249 0
3.41725 0.89924 0
3.41687 0.966392 0
3.58344 0.0334298 0
3.58366 0.10027 0
3.58385 0.16706 0
3.58402 0.233778 0
3.58415 0.300419 0
3.58425 0.36699 0
3.58431 0.433509 0
3.58433 0.5 0
3.58431 0.566491 0
3.58425 0.63301 0
3.58415 0.699581 0
3.58402 0.766222 0
3.58385 0.83294 0
3.58366 0.89973 0
3.58344 0.96657 0
3.75006 0.0333682 0
3.75019 0.100098 0
3.7503 0.16681 0
3.75041 0.233497 0
3.75049 0.300156 0
3.75055 0.366788 0
3.75058 0.433399 0
3.7506 0.5 0
3.75058 0.566601 0
3.75055 0.633212 0
3.75049 0.699844 0
3.75041 0.766503 0
3.7503 0.83319 0
3.75019 0.899902 0
3.75006 0.966632 0
3.9167 0.0333461 0
3.91678 0.100036 0
3.91685 0.166719 0
3.91691 0.233394 0
3.91696 0.300058 0
3.91699 0.366712 0
3.91702 0.433358 0
3.91702 0.5 0
3.91702 0.566642 0
3.91699 0.633288 0
3.91696 0.699942 0
3.91691 0.766606 0
3.91685 0.833281 0
3.91678 0.899964 0
3.9167 0.966654 0
4.08336 0.033338 0
4.0834 0.100013 0
4.08344 0.166686 0
4.08348 0.233356 0
4.08351 0.300021 0
4.08353 0.366683 0
4.08354 0.433342 0
4.08355 0.5 0
4.08354 0.566658 0
4.08353 0.633317 0
4.08351 0.699979 0
4.08348 0.766644 0
4.08344 0.833314 0
4.0834 0.899987 0
4.08336 0.966662 0
4.25001 0.0333351 0
4.25004 0.100005 0
4.25006 0.166674 0
4.25008 0.233342 0
4.2501 0.300008 0
4.25012 0.366673 0
4.25012 0.433337 0
4.25013 0.5 0
4.25012 0.566663 0
4.25012 0.633327 0
4.2501 0.699992 0
4.25008 0.766658 0
4.25006 0.833326 0
4.25004 0.899995 0
4.25001 0.966665 0
4.41667 0.033334 0
4.41669 0.100002 0
4.4167 0.166669 0
4.41672 0.233336 0
4.41673 0.300003 0
4.41673 0.366669 0
4.41674 0.433335 0
4.41674 0.5 0
4.41674 0.566665 0
4.41673 0.633331 0
4.41673 0.699997 0
4.41672 0.766664 0
4.4167 0.833331 0
4.41669 0.899998 0
4.41667 0.966666 0
4.58334 0.0333336 0
4.58335 0.100001 0
4.58335 0.166668 0
4.58336 0.233334 0
4.58337 0.300001 0
4.58337 0.366667 0
4.58337 0.433334 0
4.58338 0.5 0
4.58337 0.566666 0
4.58337 0.633333 0
4.58337 0.699999 0
4.58336 0.766666 0
4.58335 0.833332 0
4.58335 0.899999 0
4.58334 0.966666 0
4.75 0.0333334 0
4.75001 0.1 0
4.75001 0.166667 0
4.75001 0.233334 0
4.75002 0.3 0
4.75002 0.366667 0
4.75002 0.433333 0
4.75002 0.5 0
4.75002 0.566667 0
4.75002 0.633333 0
4.75002 0.7 0
4.75001 0.766666 0
4.75001 0.833333 0
4.75001 0.9 0
4.75 0.966667 0
4.91667 0.0333334 0
4.91667 0.1 0
4.91667 0.166667 0
4.91667 0.233333 0
4.91667 0.3 0
4.91667 0.366667 0
4.91667 0.433333 0
4.91667 0.5 0
4.91667 0.566667 0
4.91667 0.633333 0
4.91667 0.7 0
4.91667 0.766667 0
4.91667 0.833333 0
4.91667 0.9 0
4.91667 0.966667 0
POINT_DATA 450
SCALARS pressure float 1
LOOKUP_TABLE default
94471.3
94471.4
94472
94472.6
94473.2
94473.8
94474.1
94474.3
94474.1
94473.8
94473.2
94472.6
94472
94471.5
94471.3
94218
94215.5
94212.3
94207.3
94202.7
94198.3
94195.5
94194.4
94195.4
94198.3
94202.6
94207.2
94212.2
94215.4
94217.9
94557.8
94553.6
94546.9
94537.4
94528.1
94519.7
94514.1
94512.1
94514.1
94519.6
94528.1
94537.3
94546.8
94553.5
94557.7
94164
94159
94150.9
94139
94128.2
94117.3
94111.2
94108
94111.2
94117.2
94128
94138.8
94150.6
94158.7
94163.6
94640
94635.6
94627.1
94615.7
94604.6
94593.9
94587.7
94584.6
94587.6
94593.8
94604.4
94615.4
94626.8
94635.3
94639.7
94070.4
94066.4
94060.2
94049.3
94041.9
94030.9
94028.1
94023
94027.9
94030.5
94041.3
94048.6
94059.3
94065.5
94069.5
94724.3
94723
94719.6
94714.5
94711
94705.4
94704.4
94701.4
94704.3
94705.1
94710.6
94713.9
94719
94722.3
94723.6
93942.8
93937.5
93938.8
93927.6
93931.7
93919.7
93926.8
93916.5
93926.3
93918.8
93930.3
93925.9
93936.8
93935.3
93940.5
94859.5
94852.5
94852.9
94843.9
94847.1
94839
94844.7
94837.5
94844.4
94838.2
94846.3
94842.5
94851.7
94850.8
94858
93878.6
93818.5
93820.8
93752.3
93759.6
93708.8
93726.1
93693.9
93724.9
93706.8
93756.3
93748.4
93815.7
93813
93872.8
95252
95116.4
95087.1
94988.9
94968.9
94908.9
94911.7
94882.2
94911.2
94906.6
94967.4
94984.7
95084.9
95111.1
95249
94548
93792.4
93758.5
93351.4
93310.8
93121.1
93120
93050.5
93117.6
93117.4
93303.3
93343.2
93745.5
93777.8
94529.1
96084.3
95447
95043.7
94755.8
94620.4
94492.2
94458.2
94419.4
94457.6
94486.5
94619.1
94742.4
95043.3
95422.1
96084.8
89129.7
90208.4
89826.3
90519.3
90317
90751.1
90559.4
90833.7
90559
90755.8
90316.1
90531.4
89825.2
90234.9
89121.5
90207.5
91517.2
91408.9
92231.9
92071.6
92594.1
92365.9
92705.2
92362.5
92597.1
92060.7
92239
91389.7
91530.7
90171.6
87366.9
88845.2
88625
89611.4
89373.1
90031.9
89720.1
90164.8
89713.2
90028.3
89351.2
89601.2
88584.6
88820
87292.3
91754.7
92517
92289.4
92845.9
92627.7
93041.8
92787.8
93106.7
92782.1
93045
92609.2
92851.4
92253
92520.3
91691.1
93220.4
92707.2
92582.2
92409.5
92293
92301.4
92186.7
92279.3
92183.9
92318.2
92284.3
92447.5
92564.5
92779.2
93215.3
96836.7
95809.8
95637
95162
95030.8
94839.6
94778
94746.2
94784.6
94852.4
95052.8
95187.9
95680.7
95848.3
96936.6
92996.1
93072.9
93053.7
93090.5
93067.4
93097.1
93068.6
93099.5
93067.6
93098.7
93064.2
93091.9
93047.6
93070.7
92987.6
95118.6
95036.6
94999.1
94907.9
94874.1
94817
94805
94786.8
94807.4
94821.6
94881.2
94916.1
95009.8
95046.8
95131.8
93530.9
93531.4
93527.6
93526.2
93518.6
93519
93511.3
93515.8
93511.2
93519.2
93518.3
93526.4
93527.1
93531.4
93530.9
94648.4
94635.2
94621.1
94595.7
94577.7
94556.6
94547.3
94541
94547.9
94557.8
94579.4
94597.6
94623.3
94637.4
94650.6
93820.9
93813
93801.9
93785.2
93768.7
93754.3
93743.9
93741.2
93744
93754.6
93769
93785.6
93802.4
93813.8
93821.9
94451.6
94442.1
94427.5
94406.1
94386.2
94367.2
94355.5
94350.8
94355.6
94367.5
94386.5
94406.5
94427.9
94442.4
94452
93965.2
93957.6
93944.8
93926.7
93909.1
93892.8
93882.3
93878.3
93882.4
93893
93909.4
93927.2
93945.3
93958.3
93966.1
94338.8
94332.8
94321.8
94307
94292.5
94278.9
94270.6
94267
94270.6
94278.9
94292.5
94307
94321.8
94332.7
94338.7
94017.4
94014.2
94007.5
93998.8
93990.2
93982
93977.2
93974.9
93977.3
93982.2
93990.5
93999.2
94008
94014.7
94018
94267.4
94266.1
94262.8
94258.7
94254.7
94250.8
94248.7
94247.4
94248.7
94250.8
94254.8
94258.7
94262.8
94266.1
94267.4
94026.7
94027.1
94027.2
94027.4
94027.6
94027.6
94027.9
94027.7
94028
94027.8
94027.9
94027.8
94027.7
94027.8
94027.5
SCALARS density float 1
LOOKUP_TABLE default
1.21458
1.21458
1.21458
1.21459
1.21459
1.2146
1.2146
1.2146
1.2146
1.2146
1.21459
1.21459
1.21458
1.21458
1.21458
1.21223
1.21221
1.21218
1.21214
1.21209
1.21206
1.21203
1.21202
1.21203
1.21206
1.21209
1.21214
1.21218
1.21221
1.21223
1.21535
1.21531
1.21525
1.21517
1.21508
1.21501
1.21496
1.21494
1.21496
1.21501
1.21508
1.21517
1.21525
1.21531
1.21535
1.21174
1.21169
1.21162
1.21151
1.21141
1.21131
1.21126
1.21123
1.21126
1.21131
1.21141
1.21151
1.21162
1.21169
1.21174
1.21611
1.21607
1.21599
1.21589
1.21578
1.21569
1.21563
1.2156
1.21563
1.21569
1.21578
1.21588
1.21599
1.21607
1.21611
1.21089
1.21086
1.2108
1.2107
1.21064
1.21054
1.21051
1.21047
1.21051
1.21053
1.21063
1.2107
1.21079
1.21085
1.21088
1.21687
1.21686
1.21682
1.21678
1.21675
1.2167
1.21669
1.21666
1.21669
1.21669
1.21674
1.21677
1.21682
1.21685
1.21686
1.20977
1.20973
1.20974
1.20964
1.20968
1.20958
1.20964
1.20955
1.20964
1.20957
1.20967
1.20963
1.20973
1.20971
1.20975
1.21798
1.21792
1.21794
1.21787
1.21791
1.21784
1.21789
1.21783
1.21789
1.21783
1.2179
1.21786
1.21793
1.21791
1.21797
1.20954
1.20899
1.20896
1.2083
1.20834
1.20787
1.20802
1.20772
1.20801
1.20785
1.20831
1.20826
1.20891
1.20894
1.20949
1.2206
1.21958
1.2195
1.21875
1.21865
1.21815
1.2182
1.21794
1.2182
1.21814
1.21865
1.21872
1.21948
1.21953
1.22059
1.21846
1.21054
1.20972
1.20554
1.20495
1.20302
1.20295
1.20226
1.20292
1.20298
1.20487
1.20544
1.20959
1.21041
1.21828
1.22552
1.22077
1.2178
1.21579
1.21481
1.21384
1.2136
1.21329
1.2136
1.21379
1.21481
1.21569
1.21781
1.22051
1.22552
1.16438
1.17503
1.17116
1.17779
1.1759
1.18004
1.17824
1.18084
1.17824
1.18009
1.1759
1.1779
1.17114
1.17541
1.16494
1.17545
1.18816
1.18666
1.19424
1.1926
1.19745
1.19527
1.19843
1.19524
1.19748
1.1925
1.1943
1.18649
1.18851
1.17565
1.14714
1.16157
1.15947
1.16874
1.16652
1.17274
1.16986
1.17402
1.1698
1.17271
1.16631
1.16862
1.15912
1.16158
1.14696
1.18873
1.19636
1.19454
1.19966
1.19774
1.20153
1.19926
1.20215
1.19921
1.20156
1.19757
1.19969
1.19422
1.19664
1.18907
1.20162
1.19769
1.19685
1.19505
1.19398
1.19399
1.19301
1.1938
1.19298
1.19415
1.1939
1.19536
1.19671
1.1988
1.2029
1.23267
1.22518
1.2245
1.22041
1.21928
1.2176
1.21711
1.21682
1.21717
1.21771
1.21945
1.22057
1.22493
1.22602
1.23482
1.19868
1.20022
1.20079
1.20135
1.20116
1.20145
1.20124
1.20153
1.20123
1.20146
1.20109
1.20129
1.20081
1.20074
1.19969
1.21827
1.21822
1.21862
1.21808
1.21781
1.21731
1.21724
1.21709
1.21727
1.21734
1.21782
1.21808
1.21882
1.21889
1.21945
1.20384
1.20444
1.20508
1.20539
1.20538
1.20539
1.20535
1.20541
1.20535
1.20538
1.20532
1.20533
1.20521
1.20503
1.20484
1.21414
1.21458
1.2151
1.21522
1.21513
1.21494
1.21488
1.21483
1.21488
1.21493
1.21508
1.21518
1.21528
1.21519
1.21514
1.20661
1.20704
1.20756
1.20777
1.20772
1.20759
1.20751
1.2075
1.20751
1.20757
1.20765
1.20773
1.20775
1.20765
1.20756
1.21242
1.2128
1.21326
1.21344
1.21338
1.21321
1.21311
1.21308
1.21311
1.21318
1.21331
1.21341
1.21347
1.2134
1.21334
1.20803
1.2084
1.20885
1.20908
1.20906
1.20892
1.20882
1.20879
1.20882
1.20888
1.20898
1.20906
1.20908
1.20901
1.20894
1.21137
1.21173
1.21218
1.21243
1.21245
1.21235
1.21227
1.21223
1.21225
1.2123
1.21238
1.21242
1.21241
1.21233
1.21225
1.20872
1.20909
1.20956
1.20988
1.20998
1.20993
1.20988
1.20985
1.20986
1.20988
1.2099
1.20989
1.20982
1.2097
1.2096
1.21038
1.21074
1.21122
1.21157
1.21171
1.21171
1.21168
1.21166
1.21166
1.21166
1.21164
1.21158
1.21147
1.21133
1.21123
1.20967
1.21003
1.21053
1.21093
1.21112
1.21116
1.21115
1.21114
1.21113
1.2111
1.21105
1.21095
1.2108
1.21063
1.21051
SCALARS u-velocity float 1
LOOKUP_TABLE default
99.6081
99.6072
99.6042
99.6009
99.5969
99.5937
99.5912
99.5906
99.5915
99.5941
99.5976
99.6018
99.6052
99.6083
99.6092
98.7337
98.735
98.7355
98.7373
98.7388
98.7402
98.7415
98.7416
98.7416
98.7404
98.7391
98.7376
98.7359
98.7354
98.7341
99.679
99.6851
99.6932
99.7055
99.7156
99.7262
99.7316
99.735
99.732
99.727
99.7169
99.7071
99.6951
99.6873
99.6812
98.5836
98.586
98.5907
98.5984
98.6069
98.6153
98.6209
98.6231
98.621
98.6155
98.6072
98.5988
98.591
98.5863
98.5838
99.8135
99.8271
99.8449
99.8708
99.8886
99.9103
99.9178
99.9265
99.9188
99.9122
99.8915
99.8745
99.8494
99.8322
99.819
98.4078
98.4002
98.3938
98.3929
98.396
98.4029
98.4062
98.4098
98.4065
98.4036
98.3968
98.3939
98.3944
98.4004
98.4076
99.9603
100.007
100.052
100.117
100.146
100.193
100.199
100.222
100.202
100.198
100.152
100.125
100.063
100.02
99.975
98.1858
98.136
98.0969
98.0894
98.0901
98.11
98.1138
98.1288
98.1151
98.113
98.0935
98.0943
98.1
98.1371
98.1836
99.804
100.09
100.24
100.495
100.595
100.759
100.78
100.845
100.785
100.768
100.61
100.513
100.265
100.123
99.8471
97.4723
97.3582
97.4665
97.665
97.8019
98.0139
98.0919
98.1824
98.0974
98.0269
97.8155
97.6886
97.4858
97.3723
97.4562
97.8357
99.6866
100.027
101.227
101.715
102.254
102.434
102.566
102.443
102.27
101.746
101.261
100.072
99.7466
97.9757
89.6228
94.6192
96.4312
98.2276
99.2379
100.378
100.79
101.1
100.805
100.417
99.2792
98.3002
96.5088
94.7727
89.5442
90.0108
94.2147
101.742
104.031
106.532
106.982
108.024
107.772
108.04
107.014
106.588
104.124
101.871
94.2839
90.2912
123.813
120.301
120.886
119.451
119.765
118.291
118.693
117.828
118.693
118.266
119.772
119.379
120.834
120.355
124.985
134.827
130.575
127.564
124.976
123.934
122.171
121.987
121.212
122.004
122.19
123.98
124.976
127.635
131.036
135.997
136.999
133.259
130.022
127.58
126.38
124.926
124.552
123.998
124.583
124.979
126.468
127.674
130.263
133.893
138.146
117.895
120.32
118.201
118.466
117.433
117.538
116.809
117.051
116.83
117.539
117.478
118.416
118.338
120.856
120.144
89.3463
101.733
102.684
106.312
106.566
108.664
108.273
109.22
108.24
108.594
106.421
106.023
102.398
102.331
92.1994
79.316
90.7501
95.7113
99.1522
100.35
102.111
102.265
102.919
102.222
102.054
100.132
98.8812
95.4909
91.8101
81.7352
96.1672
98.8184
102.045
103.031
103.454
103.938
104.007
104.238
104.004
103.923
103.338
102.866
102.183
100.095
98.6942
91.2
93.9328
97.0528
98.604
99.1592
99.6836
99.8361
100.049
99.8276
99.6432
98.9975
98.4138
97.2409
95.2391
93.6106
96.0024
98.0402
100.59
101.813
102.197
102.352
102.447
102.518
102.451
102.319
102.061
101.68
100.905
99.3924
98.3245
93.5016
95.4556
97.8847
99.2755
99.7416
99.9091
99.999
100.067
99.9983
99.8571
99.5852
99.1541
98.2543
96.8317
95.7708
95.637
97.4128
99.6562
101.04
101.53
101.644
101.705
101.74
101.702
101.583
101.375
100.953
100.084
98.7928
97.8265
94.3829
96.0649
98.2304
99.6717
100.228
100.357
100.402
100.429
100.392
100.281
100.066
99.6083
98.7038
97.4588
96.5326
95.4594
97.0303
99.0954
100.544
101.145
101.281
101.308
101.321
101.291
101.193
100.983
100.508
99.605
98.4188
97.5483
94.9206
96.4105
98.4087
99.874
100.522
100.674
100.69
100.691
100.664
100.574
100.359
99.863
98.9531
97.8039
96.9742
95.4288
96.8365
98.7593
100.221
100.903
101.072
101.077
101.067
101.042
100.961
100.743
100.234
99.3306
98.2234
97.4365
95.3064
96.6471
98.5089
99.9694
100.685
100.871
100.869
100.85
100.825
100.75
100.528
100.006
99.1057
98.0322
97.2804
95.4395
96.7195
98.5224
99.9759
100.72
100.927
100.924
100.897
100.872
100.797
100.568
100.034
99.1405
98.0987
97.3783
SCALARS v-velocity float 1
LOOKUP_TABLE default
-0.00298954
-0.00760016
-0.0114538
-0.0129548
-0.0124291
-0.00973669
-0.00544343
-0.000269979
0.00491649
0.00924058
0.0119873
0.0125848
0.0111735
0.00742577
0.00292884
-0.00433347
-0.0112493
-0.017429
-0.0196256
-0.0191675
-0.0147694
-0.00806128
0.000262206
0.00857334
0.0152528
0.0195997
0.0199909
0.0177071
0.0114254
0.00439227
-0.00170386
-0.00322034
-0.00619663
-0.00550689
-0.0062509
-0.00406703
-0.00272418
-0.000298532
0.00214351
0.00351165
0.00574694
0.00507401
0.00585218
0.00300592
0.00162078
0.00753319
0.018196
0.0264956
0.0299838
0.0278062
0.0221584
0.012264
0.00105201
-0.0102164
-0.0202149
-0.0260654
-0.0285002
-0.0253492
-0.0174684
-0.00727795
0.00829908
0.0230976
0.0344531
0.0423363
0.0402
0.0329499
0.0175603
-0.00022497
-0.0179719
-0.0334091
-0.0406564
-0.0428086
-0.0349232
-0.0234156
-0.00845796
0.0319648
0.0723304
0.109274
0.118217
0.112699
0.0867959
0.0487046
0.00316064
-0.0425831
-0.0809146
-0.1074
-0.113613
-0.105584
-0.0699368
-0.0310622
0.0146425
0.0428013
0.0738843
0.0901916
0.091478
0.0734258
0.0415517
0.000591818
-0.0401745
-0.0725676
-0.0908516
-0.0901532
-0.0745054
-0.0434449
-0.0152093
0.0947927
0.174464
0.258486
0.26645
0.249719
0.188327
0.104901
0.00815302
-0.0893193
-0.172924
-0.235796
-0.253968
-0.247802
-0.166949
-0.0914471
0.0331221
0.140368
0.237039
0.261944
0.265461
0.203957
0.118527
0.00475763
-0.107718
-0.196085
-0.258303
-0.257945
-0.236683
-0.142455
-0.0371643
0.390111
0.54176
0.744413
0.788947
0.658371
0.511013
0.262443
0.0183263
-0.228763
-0.475699
-0.626904
-0.759353
-0.718511
-0.519312
-0.373833
1.12095
1.73494
2.0448
1.93914
1.70113
1.21865
0.655042
0.0213312
-0.604581
-1.18013
-1.6599
-1.91208
-2.02127
-1.73183
-1.15186
-0.313515
3.36017
2.51068
3.07134
2.02687
1.69713
0.765916
0.0356111
-0.705832
-1.62896
-1.97353
-3.01324
-2.48154
-3.33908
0.351289
23.1006
19.9448
15.9823
12.907
9.04806
6.12526
2.95035
0.0667967
-2.78917
-5.9888
-8.86614
-12.7696
-15.7569
-19.7717
-22.8717
25.123
16.0569
13.1554
8.67771
6.61221
3.83389
2.04262
0.0754904
-1.90108
-3.6799
-6.47113
-8.5078
-12.9875
-15.8583
-25.2922
11.406
7.09654
6.74938
4.15392
3.7226
1.9993
1.21353
0.0687934
-1.12876
-1.86759
-3.66547
-4.03385
-6.74741
-7.06014
-11.6376
-8.2333
-8.56831
-4.69737
-4.81292
-2.39029
-2.10701
-0.685396
0.126315
0.865063
2.36163
2.57425
5.07896
4.90029
8.85684
8.46409
-20.8632
-18.1339
-12.1408
-10.0871
-6.23166
-4.41003
-1.84697
0.156128
2.07044
4.74556
6.48819
10.5022
12.5161
18.7995
21.5388
-23.33
-18.4243
-14.4521
-10.8941
-7.86296
-4.98866
-2.42469
0.188581
2.62189
5.38915
8.06287
11.3822
14.6924
19.1909
23.9129
-2.48222
-0.517939
-2.25758
-1.35741
-1.77802
-0.934467
-0.631444
0.0446101
0.655854
1.00939
1.78158
1.40635
2.22862
0.452708
2.34316
-1.92944
-2.2668
-2.76995
-2.2873
-2.11546
-1.3465
-0.738678
0.0568137
0.805555
1.44927
2.17629
2.37423
2.80722
2.22581
1.90704
-0.221741
-0.331554
-0.461805
-0.308834
-0.434123
-0.244877
-0.172016
0.0108813
0.177787
0.26256
0.445703
0.330973
0.462477
0.286218
0.196063
-0.202191
-0.430656
-0.531371
-0.454683
-0.477103
-0.326651
-0.189943
0.0120805
0.205076
0.348528
0.497874
0.476716
0.527589
0.386556
0.178493
-0.0620242
-0.163808
-0.166117
-0.122922
-0.143252
-0.105693
-0.0671413
0.00238134
0.0692901
0.113038
0.156127
0.13716
0.161
0.13281
0.0441455
-0.0618205
-0.151117
-0.155798
-0.119138
-0.120042
-0.0943081
-0.0581093
0.000474237
0.0583283
0.0991805
0.130065
0.1267
0.143129
0.118257
0.043908
-0.0345767
-0.0796446
-0.064528
-0.0302303
-0.0284823
-0.026872
-0.0203025
-0.000296808
0.0204369
0.0320192
0.0392604
0.0382319
0.0551451
0.0547532
0.0208529
-0.0276586
-0.0587036
-0.039642
-0.00367603
0.00260451
-0.00162035
-0.00672917
-0.00223815
0.00361676
0.00359027
0.00399285
0.00577952
0.0252469
0.0324725
0.0141028
-0.0149407
-0.0264429
0.000186431
0.0357343
0.0420728
0.0301325
0.0115795
-0.00129531
-0.0123795
-0.0257551
-0.0336379
-0.0321596
-0.0114149
0.00528185
0.00400008
-0.0120404
-0.0199203
0.00649688
0.0408516
0.0495584
0.0371683
0.0154542
-0.00281482
-0.0190725
-0.0357092
-0.0449022
-0.041742
-0.0209374
-0.00200212
0.00126324
-0.00911495
-0.0138322
0.0104645
0.0412251
0.0506719
0.0390791
0.0175738
-0.00195607
-0.0193302
-0.0358685
-0.0448645
-0.041097
-0.0225951
-0.00469379
4.66694e-05
-0.0144418
-0.0284666
-0.0124617
0.014274
0.0265189
0.0209204
0.00792272
-0.0028
-0.0113
-0.0194652
-0.0230391
-0.0168986
-0.0018565
0.00897363
0.0051902
SCALARS Mach float 1
LOOKUP_TABLE default
30.0668
30.0663
30.0644
30.0624
30.06
30.058
30.0565
30.0561
30.0566
30.0583
30.0604
30.0629
30.065
30.0669
30.0675
29.5524
29.5533
29.5537
29.555
29.5562
29.5572
29.5581
29.5582
29.5582
29.5573
29.5564
29.5553
29.554
29.5536
29.5527
30.1055
30.1094
30.1146
30.1225
30.129
30.1358
30.1393
30.1414
30.1396
30.1363
30.1298
30.1234
30.1158
30.1107
30.1069
29.465
29.4667
29.4699
29.4751
29.4807
29.4862
29.4898
29.4912
29.4898
29.4863
29.4808
29.4753
29.4701
29.4669
29.4652
30.1831
30.1915
30.2027
30.2188
30.2302
30.2438
30.2486
30.254
30.2492
30.245
30.2319
30.2211
30.2054
30.1946
30.1864
29.3644
29.3601
29.3565
29.3565
29.3587
29.3634
29.3654
29.3678
29.3656
29.3638
29.3592
29.3572
29.357
29.3603
29.3643
30.2679
30.2965
30.3237
30.3631
30.381
30.41
30.4137
30.4274
30.4151
30.4127
30.3851
30.3682
30.3303
30.3044
30.2768
29.2385
29.2092
29.186
29.182
29.1823
29.1946
29.1965
29.2058
29.1973
29.1964
29.1843
29.185
29.1879
29.2099
29.2372
30.1656
30.3391
30.4306
30.5862
30.647
30.7472
30.76
30.7996
30.763
30.7528
30.656
30.597
30.4455
30.359
30.1917
28.8226
28.7582
28.8223
28.9427
29.0227
29.1502
29.1953
29.2504
29.1986
29.158
29.0308
28.9567
28.8338
28.7667
28.8132
28.9626
30.0828
30.2959
31.0322
31.3311
31.6634
31.7717
31.8541
31.7769
31.6729
31.3497
31.0528
30.3229
30.1193
29.0461
24.3702
27.2175
28.249
29.333
29.922
30.6161
30.8598
31.0509
30.8692
30.639
29.9465
29.3755
28.2944
27.3059
24.3282
26.0653
28.0316
32.0887
33.2677
34.6164
34.7828
35.3769
35.1886
35.3848
34.7987
34.6425
33.3167
32.1467
28.0509
26.186
48.7557
44.9308
45.124
43.7283
43.8749
42.6893
42.9602
42.3066
42.9587
42.6671
43.8744
43.6664
45.072
44.9514
49.6869
55.8555
52.0741
49.691
47.5525
46.7617
45.376
45.2465
44.6462
45.2587
45.3884
46.7965
47.549
49.7472
52.4438
56.8547
57.6864
54.4914
51.7476
49.7506
48.7853
47.6173
47.3447
46.8901
47.3698
47.6618
48.8578
49.8316
51.9489
55.0318
58.6848
43.6058
44.9974
42.9302
42.9443
42.0288
42.0178
41.4673
41.6082
41.4857
42.0278
42.0725
42.9341
43.0592
45.4691
45.3441
25.874
32.4706
32.6753
34.7116
34.7092
35.968
35.6602
36.2621
35.6413
35.9336
34.6252
34.5554
32.5193
32.9315
27.5446
18.9884
24.8908
27.7185
29.7607
30.4951
31.5776
31.6748
32.0821
31.6481
31.5419
30.3611
29.5965
27.5892
25.4791
20.1683
28.0727
29.6524
31.638
32.2456
32.5095
32.8054
32.847
32.9903
32.8453
32.7962
32.4373
32.1424
31.725
30.4291
29.5803
25.1575
26.6989
28.5126
29.4385
29.7733
30.0915
30.1846
30.3147
30.1794
30.0668
29.6754
29.3238
28.624
27.4526
26.516
27.9453
29.1519
30.6969
31.4518
31.6909
31.7869
31.8464
31.8903
31.8492
31.7662
31.6057
31.3691
30.8911
29.9687
29.3257
26.4638
27.5884
29.0188
29.8547
30.1374
30.2398
30.2949
30.3364
30.2945
30.208
30.0421
29.7809
29.2401
28.3964
27.775
27.7219
28.7673
30.1158
30.9635
31.2666
31.3374
31.3756
31.3975
31.3739
31.2996
31.1703
30.9096
30.3771
29.5954
29.017
26.9739
27.9497
29.2318
30.1016
30.4409
30.5204
30.5485
30.5652
30.5424
30.4739
30.3416
30.0629
29.5167
28.7738
28.2274
27.614
28.5358
29.771
30.6537
31.0236
31.1079
31.1255
31.1336
31.1148
31.0536
30.9233
30.6314
30.0807
29.3656
28.8465
27.2867
28.1551
29.3414
30.2272
30.623
30.7171
30.7267
30.7279
30.7107
30.6556
30.5232
30.2204
29.6698
28.9819
28.4905
27.5965
28.4215
29.5682
30.4554
30.874
30.978
30.9813
30.9756
30.9598
30.9096
30.7753
30.4635
29.9143
29.2487
28.7803
27.5081
28.2918
29.3986
30.282
30.7193
30.8337
30.8326
30.8205
30.8056
30.7592
30.6227
30.3041
29.7591
29.1157
28.6694
27.6122
28.3619
29.4352
30.3151
30.7702
30.8974
30.8956
30.8786
30.8632
30.8175
30.6766
30.3508
29.8089
29.1837
28.7553
