# vtk DataFile Version 3.0
Structured Grid Example
ASCII
DATASET STRUCTURED_GRID
DIMENSIONS 15 30 1
POINTS 450 FLOAT
0.0833327 0.0333334 0
0.0833313 0.1 0
0.0833301 0.166667 0
0.083329 0.233333 0
0.0833281 0.3 0
0.0833274 0.366667 0
0.083327 0.433333 0
0.0833268 0.5 0
0.083327 0.566667 0
0.0833274 0.633333 0
0.0833281 0.7 0
0.083329 0.766667 0
0.0833301 0.833333 0
0.0833313 0.9 0
0.0833327 0.966667 0
0.249998 0.0333334 0
0.249993 0.1 0
0.249989 0.166667 0
0.249986 0.233334 0
0.249983 0.3 0
0.24998 0.366667 0
0.249979 0.433333 0
0.249979 0.5 0
0.249979 0.566667 0
0.24998 0.633333 0
0.249983 0.7 0
0.249986 0.766666 0
0.249989 0.833333 0
0.249993 0.9 0
0.249998 0.966667 0
0.416662 0.0333336 0
0.416654 0.100001 0
0.416646 0.166668 0
0.416639 0.233334 0
0.416633 0.300001 0
0.416628 0.366667 0
0.416626 0.433334 0
0.416625 0.5 0
0.416626 0.566666 0
0.416628 0.633333 0
0.416633 0.699999 0
0.416639 0.766666 0
0.416646 0.833332 0
0.416654 0.899999 0
0.416662 0.966666 0
0.583326 0.033334 0
0.58331 0.100002 0
0.583296 0.166669 0
0.583284 0.233336 0
0.583273 0.300003 0
0.583266 0.366669 0
0.583261 0.433335 0
0.583259 0.5 0
0.583261 0.566665 0
0.583266 0.633331 0
0.583273 0.699997 0
0.583284 0.766664 0
0.583296 0.833331 0
0.58331 0.899998 0
0.583326 0.966666 0
0.749987 0.0333351 0
0.749961 0.100005 0
0.749937 0.166674 0
0.749915 0.233342 0
0.749898 0.300008 0
0.749884 0.366673 0
0.749876 0.433337 0
0.749874 0.5 0
0.749876 0.566663 0
0.749884 0.633327 0
0.749898 0.699992 0
0.749915 0.766658 0
0.749937 0.833326 0
0.749961 0.899995 0
0.749987 0.966665 0
0.916644 0.033338 0
0.916601 0.100013 0
0.91656 0.166686 0
0.916524 0.233356 0
0.916494 0.300021 0
0.916472 0.366683 0
0.916458 0.433342 0
0.916454 0.5 0
0.916458 0.566658 0
0.916472 0.633317 0
0.916494 0.699979 0
0.916524 0.766644 0
0.91656 0.833314 0
0.916601 0.899987 0
0.916644 0.966662 0
1.0833 0.0333461 0
1.08322 0.100036 0
1.08315 0.166719 0
1.08309 0.233394 0
1.08304 0.300058 0
1.08301 0.366712 0
1.08298 0.433358 0
1.08298 0.5 0
1.08298 0.566642 0
1.08301 0.633288 0
1.08304 0.699942 0
1.08309 0.766606 0
1.08315 0.833281 0
1.08322 0.899964 0
1.0833 0.966654 0
1.24994 0.0333682 0
1.24981 0.100098 0
1.2497 0.16681 0
1.24959 0.233497 0
1.24951 0.300156 0
1.24945 0.366788 0
1.24942 0.433399 0
1.2494 0.5 0
1.24942 0.566601 0
1.24945 0.633212 0
1.24951 0.699844 0
1.24959 0.766503 0
1.2497 0.83319 0
1.24981 0.899902 0
1.24994 0.966632 0
1.41656 0.0334298 0
1.41634 0.10027 0
1.41615 0.16706 0
1.41598 0.233778 0
1.41585 0.300419 0
1.41575 0.36699 0
1.41569 0.433509 0
1.41567 0.5 0
1.41569 0.566491 0
1.41575 0.63301 0
1.41585 0.699581 0
1.41598 0.766222 0
1.41615 0.83294 0
1.41634 0.89973 0
1.41656 0.96657 0
1.58313 0.0336075 0
1.58275 0.10076 0
1.58242 0.167751 0
1.58215 0.234537 0
1.58195 0.301115 0
1.58181 0.367517 0
1.58173 0.433791 0
1.58171 0.5 0
1.58173 0.566209 0
1.58181 0.632483 0
1.58195 0.698885 0
1.58215 0.765463 0
1.58242 0.832249 0
1.58275 0.89924 0
1.58313 0.966392 0
1.74959 0.0341677 0
1.74885 0.102235 0
1.74829 0.169714 0
1.74791 0.236575 0
1.74766 0.302905 0
1.74751 0.368829 0
1.74744 0.434482 0
1.74741 0.5 0
1.74744 0.565518 0
1.74751 0.631171 0
1.74766 0.697095 0
1.74791 0.763425 0
1.74829 0.830286 0
1.74885 0.897765 0
1.74959 0.965832 0
1.91555 0.0363295 0
1.91388 0.107253 0
1.91312 0.175401 0
1.91283 0.241837 0
1.91276 0.307169 0
1.91277 0.371793 0
1.9128 0.435995 0
1.91281 0.5 0
1.9128 0.564005 0
1.91277 0.628207 0
1.91276 0.692831 0
1.91283 0.758163 0
1.91312 0.824599 0
1.91388 0.892747 0
1.91555 0.963671 0
2.07838 0.0591504 0
2.07417 0.125973 0
2.07554 0.190391 0
2.07663 0.253364 0
2.07743 0.315525 0
2.07798 0.377223 0
2.07829 0.438667 0
2.0784 0.5 0
2.07829 0.561333 0
2.07798 0.622777 0
2.07743 0.684475 0
2.07663 0.746636 0
2.07554 0.809609 0
2.07417 0.874027 0
2.07838 0.94085 0
2.24384 0.096456 0
2.23911 0.153168 0
2.24152 0.210396 0
2.24318 0.267878 0
2.24431 0.325632 0
2.24503 0.383617 0
2.24544 0.441767 0
2.24557 0.5 0
2.24544 0.558233 0
2.24503 0.616383 0
2.24431 0.674368 0
2.24318 0.732122 0
2.24152 0.789604 0
2.23911 0.846832 0
2.24384 0.903544 0
2.41462 0.118677 0
2.41292 0.170231 0
2.41356 0.223198 0
2.41406 0.277268 0
2.41444 0.332207 0
2.4147 0.387788 0
2.41485 0.44379 0
2.4149 0.5 0
2.41485 0.55621 0
2.4147 0.612212 0
2.41444 0.667793 0
2.41406 0.722732 0
2.41356 0.776802 0
2.41292 0.829769 0
2.41462 0.881323 0
2.58538 0.118677 0
2.58708 0.170231 0
2.58644 0.223198 0
2.58594 0.277268 0
2.58556 0.332207 0
2.5853 0.387788 0
2.58515 0.44379 0
2.5851 0.5 0
2.58515 0.55621 0
2.5853 0.612212 0
2.58556 0.667793 0
2.58594 0.722732 0
2.58644 0.776802 0
2.58708 0.829769 0
2.58538 0.881323 0
2.75616 0.096456 0
2.76089 0.153168 0
2.75848 0.210396 0
2.75682 0.267878 0
2.75569 0.325632 0
2.75497 0.383617 0
2.75456 0.441767 0
2.75443 0.5 0
2.75456 0.558233 0
2.75497 0.616383 0
2.75569 0.674368 0
2.75682 0.732122 0
2.75848 0.789604 0
2.76089 0.846832 0
2.75616 0.903544 0
2.92162 0.0591504 0
2.92583 0.125973 0
2.92446 0.190391 0
2.92337 0.253364 0
2.92257 0.315525 0
2.92202 0.377223 0
2.92171 0.438667 0
2.9216 0.5 0
2.92171 0.561333 0
2.92202 0.622777 0
2.92257 0.684475 0
2.92337 0.746636 0
2.92446 0.809609 0
2.92583 0.874027 0
2.92162 0.94085 0
3.08445 0.0363295 0
3.08612 0.107253 0
3.08688 0.175401 0
3.08717 0.241837 0
3.08724 0.307169 0
3.08723 0.371793 0
3.0872 0.435995 0
3.08719 0.5 0
3.0872 0.564005 0
3.08723 0.628207 0
3.08724 0.692831 0
3.08717 0.758163 0
3.08688 0.824599 0
3.08612 0.892747 0
3.08445 0.963671 0
3.25041 0.0341677 0
3.25115 0.102235 0
3.25171 0.169714 0
3.25209 0.236575 0
3.25234 0.302905 0
3.25249 0.368829 0
3.25256 0.434482 0
3.25259 0.5 0
3.25256 0.565518 0
3.25249 0.631171 0
3.25234 0.697095 0
3.25209 0.763425 0
3.25171 0.830286 0
3.25115 0.897765 0
3.25041 0.965832 0
3.41687 0.0336075 0
3.41725 0.10076 0
3.41758 0.167751 0
3.41785 0.234537 0
3.41805 0.301115 0
3.41819 0.367517 0
3.41827 0.433791 0
3.41829 0.5 0
3.41827 0.566209 0
3.41819 0.632483 0
3.41805 0.698885 0
3.41785 0.765463 0
3.41758 0.832249 0
3.41725 0.89924 0
3.41687 0.966392 0
3.58344 0.0334298 0
3.58366 0.10027 0
3.58385 0.16706 0
3.58402 0.233778 0
3.58415 0.300419 0
3.58425 0.36699 0
3.58431 0.433509 0
3.58433 0.5 0
3.58431 0.566491 0
3.58425 0.63301 0
3.58415 0.699581 0
3.58402 0.766222 0
3.58385 0.83294 0
3.58366 0.89973 0
3.58344 0.96657 0
3.75006 0.0333682 0
3.75019 0.100098 0
3.7503 0.16681 0
3.75041 0.233497 0
3.75049 0.300156 0
3.75055 0.366788 0
3.75058 0.433399 0
3.7506 0.5 0
3.75058 0.566601 0
3.75055 0.633212 0
3.75049 0.699844 0
3.75041 0.766503 0
3.7503 0.83319 0
3.75019 0.899902 0
3.75006 0.966632 0
3.9167 0.0333461 0
3.91678 0.100036 0
3.91685 0.166719 0
3.91691 0.233394 0
3.91696 0.300058 0
3.91699 0.366712 0
3.91702 0.433358 0
3.91702 0.5 0
3.91702 0.566642 0
3.91699 0.633288 0
3.91696 0.699942 0
3.91691 0.766606 0
3.91685 0.833281 0
3.91678 0.899964 0
3.9167 0.966654 0
4.08336 0.033338 0
4.0834 0.100013 0
4.08344 0.166686 0
4.08348 0.233356 0
4.08351 0.300021 0
4.08353 0.366683 0
4.08354 0.433342 0
4.08355 0.5 0
4.08354 0.566658 0
4.08353 0.633317 0
4.08351 0.699979 0
4.08348 0.766644 0
4.08344 0.833314 0
4.0834 0.899987 0
4.08336 0.966662 0
4.25001 0.0333351 0
4.25004 0.100005 0
4.25006 0.166674 0
4.25008 0.233342 0
4.2501 0.300008 0
4.25012 0.366673 0
4.25012 0.433337 0
4.25013 0.5 0
4.25012 0.566663 0
4.25012 0.633327 0
4.2501 0.699992 0
4.25008 0.766658 0
4.25006 0.833326 0
4.25004 0.899995 0
4.25001 0.966665 0
4.41667 0.033334 0
4.41669 0.100002 0
4.4167 0.166669 0
4.41672 0.233336 0
4.41673 0.300003 0
4.41673 0.366669 0
4.41674 0.433335 0
4.41674 0.5 0
4.41674 0.566665 0
4.41673 0.633331 0
4.41673 0.699997 0
4.41672 0.766664 0
4.4167 0.833331 0
4.41669 0.899998 0
4.41667 0.966666 0
4.58334 0.0333336 0
4.58335 0.100001 0
4.58335 0.166668 0
4.58336 0.233334 0
4.58337 0.300001 0
4.58337 0.366667 0
4.58337 0.433334 0
4.58338 0.5 0
4.58337 0.566666 0
4.58337 0.633333 0
4.58337 0.699999 0
4.58336 0.766666 0
4.58335 0.833332 0
4.58335 0.899999 0
4.58334 0.966666 0
4.75 0.0333334 0
4.75001 0.1 0
4.75001 0.166667 0
4.75001 0.233334 0
4.75002 0.3 0
4.75002 0.366667 0
4.75002 0.433333 0
4.75002 0.5 0
4.75002 0.566667 0
4.75002 0.633333 0
4.75002 0.7 0
4.75001 0.766666 0
4.75001 0.833333 0
4.75001 0.9 0
4.75 0.966667 0
4.91667 0.0333334 0
4.91667 0.1 0
4.91667 0.166667 0
4.91667 0.233333 0
4.91667 0.3 0
4.91667 0.366667 0
4.91667 0.433333 0
4.91667 0.5 0
4.91667 0.566667 0
4.91667 0.633333 0
4.91667 0.7 0
4.91667 0.766667 0
4.91667 0.833333 0
4.91667 0.9 0
4.91667 0.966667 0
POINT_DATA 450
SCALARS pressure float 1
LOOKUP_TABLE default
94473.3
94473.2
94473
94472.9
94472.7
94472.5
94472.4
94472.4
94472.4
94472.5
94472.6
94472.9
94473
94473.2
94473.2
94208.1
94207.7
94207.2
94206.3
94205.7
94204.8
94204.5
94204.2
94204.5
94204.8
94205.6
94206.2
94207.1
94207.6
94207.9
94536.8
94536.6
94536
94535.3
94534.5
94533.8
94533.4
94533.2
94533.4
94533.8
94534.5
94535.2
94535.9
94536.5
94536.8
94138.1
94137.7
94137.5
94136.5
94136.3
94135.2
94135.4
94134.6
94135.3
94135
94136.1
94136.3
94137.2
94137.5
94137.8
94613.2
94613.2
94613.1
94612.8
94612.7
94612.4
94612.4
94612.2
94612.4
94612.3
94612.6
94612.7
94612.9
94613
94613
94049.2
94048.4
94049.1
94047
94048.5
94045.9
94047.9
94045.4
94047.8
94045.6
94048
94046.5
94048.4
94047.6
94048.5
94714.9
94714.4
94714.6
94713.4
94714
94712.5
94713.5
94712.1
94713.4
94712.3
94713.7
94713
94714.3
94713.9
94714.5
93946
93939
93940.1
93927.5
93930.4
93917.8
93923.6
93913.8
93923.2
93917
93929.2
93926
93938.4
93937.1
93944
94875.9
94865
94861.3
94845.4
94842
94828.4
94829.8
94821.8
94829.6
94827.8
94841.4
94844.2
94860.3
94863.7
94874.7
93903.2
93837.9
93833.3
93754.5
93751.8
93692.2
93703.1
93669.2
93702
93690.2
93748.6
93750.8
93828.5
93832.7
93897.7
95278.9
95137.8
95100.4
94990.6
94959.3
94889.4
94885.5
94853.7
94885
94887.3
94958.1
94986.6
95098.5
95132.8
95276.2
94572.2
93811.7
93770
93352.6
93302.1
93103.6
93096.9
93025.4
93094.5
93100.1
93294.8
93344.6
93757.2
93797.4
94553.6
96101.4
95460
95050.8
94756
94614
94480.4
94442.6
94402.6
94442
94474.6
94612.8
94742.7
95050.5
95435.1
96102.2
89135.6
90213.1
89828.5
90519.1
90314.4
90746.4
90553.4
90827.1
90553.1
90751.1
90313.6
90531.3
89827.4
90239.7
89127.5
90210.6
91519.9
91410.4
92232.3
92070.5
92591.8
92362.9
92701.8
92359.5
92594.9
92059.8
92239.4
91391.4
91533.5
90174.8
87372.8
88850.1
88628.3
89612.7
89372.4
90029.2
89716.3
90160.5
89709.5
90025.7
89350.5
89602.6
88588
88825.1
87298.3
91767
92527.1
92295.5
92847.9
92625.4
93035.8
92779.4
93097.5
92773.8
93039
92606.9
92853.4
92259.2
92530.5
91703.5
93241.4
92723.8
92592.5
92411.4
92287.5
92288.8
92170.1
92260.7
92167.3
92305.6
92278.8
92449.4
92574.8
92795.8
93236.2
96860.2
95829.4
95649
95164.1
95023.7
94823.5
94756.9
94722.5
94763.5
94836.3
95045.7
95189.9
95692.6
95867.7
96960.1
93009.8
93085
93060.8
93091.7
93062.5
93086
93054.3
93083.1
93053.3
93087.5
93059.2
93092.9
93054.6
93082.6
93001.1
95117.4
95036.4
94997.8
94906.4
94872
94814
94802.2
94783.1
94804.6
94818.5
94879
94914.4
95008.3
95046.5
95130.4
93513
93517.6
93517.6
93523
93521.8
93527.5
93524.1
93529.2
93524
93527.6
93521.3
93523
93516.9
93517.4
93512.7
94614.8
94608.7
94603.5
94592
94587.4
94578.1
94577.4
94573.3
94578
94579.2
94589
94593.8
94605.5
94610.6
94616.8
93777.8
93778.6
93780.1
93781.9
93783.5
93785.3
93786
93786.8
93786.1
93785.5
93783.7
93782.3
93780.5
93779.2
93778.5
94405.5
94404.9
94404.6
94403.5
94403.5
94402.5
94402.8
94402.2
94402.9
94402.7
94403.7
94403.8
94404.8
94405
94405.6
93923.1
93923.2
93923.6
93923.9
93924.2
93924.5
93924.7
93924.8
93924.8
93924.7
93924.5
93924.2
93924.1
93923.7
93923.8
94305.4
94304.9
94304.4
94303.4
94302.8
94302
94301.7
94301.4
94301.7
94302
94302.8
94303.4
94304.3
94304.7
94305.2
93997.2
93996.9
93996.5
93995.7
93995
93994.3
93993.9
93993.7
93993.9
93994.4
93995.2
93996
93996.8
93997.3
93997.7
94258
94257.6
94256.9
94256
94255.1
94254.2
94253.6
94253.4
94253.6
94254.1
94255
94255.9
94256.8
94257.4
94257.9
94025.9
94025.9
94025.8
94025.5
94025.2
94024.9
94024.7
94024.7
94024.8
94025.1
94025.5
94025.9
94026.3
94026.5
94026.6
SCALARS density float 1
LOOKUP_TABLE default
1.21459
1.21459
1.21459
1.21459
1.21459
1.21459
1.21459
1.21459
1.21459
1.21459
1.21459
1.21459
1.21459
1.21459
1.21459
1.21214
1.21214
1.21213
1.21213
1.21212
1.21211
1.21211
1.21211
1.21211
1.21211
1.21212
1.21213
1.21213
1.21214
1.21214
1.21516
1.21516
1.21515
1.21515
1.21514
1.21514
1.21513
1.21513
1.21513
1.21514
1.21514
1.21515
1.21515
1.21516
1.21516
1.2115
1.2115
1.2115
1.21149
1.21149
1.21148
1.21148
1.21147
1.21148
1.21148
1.21149
1.21149
1.2115
1.2115
1.2115
1.21586
1.21586
1.21586
1.21586
1.21586
1.21586
1.21586
1.21586
1.21586
1.21586
1.21586
1.21586
1.21586
1.21586
1.21586
1.2107
1.21069
1.2107
1.21068
1.2107
1.21067
1.21069
1.21067
1.21069
1.21067
1.21069
1.21068
1.21069
1.21068
1.21069
1.21678
1.21678
1.21678
1.21677
1.21678
1.21676
1.21677
1.21676
1.21677
1.21676
1.21677
1.21677
1.21678
1.21677
1.21678
1.2098
1.20974
1.20976
1.20964
1.20967
1.20956
1.20961
1.20952
1.20961
1.20955
1.20966
1.20963
1.20974
1.20973
1.20979
1.21813
1.21804
1.21802
1.21789
1.21786
1.21774
1.21775
1.21768
1.21775
1.21774
1.21786
1.21788
1.21801
1.21802
1.21812
1.20977
1.20917
1.20908
1.20832
1.20827
1.20771
1.20781
1.2075
1.2078
1.2077
1.20824
1.20828
1.20903
1.20912
1.20972
1.22085
1.21978
1.21962
1.21877
1.21857
1.21798
1.21796
1.21768
1.21796
1.21796
1.21856
1.21874
1.2196
1.21973
1.22084
1.21868
1.21072
1.20983
1.20555
1.20487
1.20285
1.20273
1.20202
1.20271
1.20282
1.20479
1.20546
1.2097
1.21059
1.21851
1.22568
1.22089
1.21786
1.21579
1.21475
1.21373
1.21346
1.21314
1.21345
1.21368
1.21475
1.21569
1.21788
1.22063
1.22568
1.16443
1.17507
1.17118
1.17779
1.17588
1.18
1.17819
1.18078
1.17819
1.18005
1.17588
1.1779
1.17116
1.17545
1.165
1.17548
1.18819
1.18668
1.19425
1.19259
1.19743
1.19524
1.1984
1.19521
1.19746
1.19249
1.19431
1.1865
1.18853
1.17568
1.1472
1.16162
1.1595
1.16875
1.16651
1.17271
1.16982
1.17398
1.16976
1.17268
1.1663
1.16864
1.15915
1.16162
1.14702
1.18884
1.19645
1.19459
1.19968
1.19772
1.20148
1.19919
1.20206
1.19914
1.20151
1.19755
1.19971
1.19428
1.19674
1.18919
1.20181
1.19785
1.19694
1.19507
1.19393
1.19387
1.19285
1.19363
1.19283
1.19403
1.19385
1.19538
1.1968
1.19895
1.20309
1.23289
1.22536
1.22461
1.22043
1.21921
1.21745
1.21692
1.2166
1.21698
1.21756
1.21939
1.22059
1.22504
1.2262
1.23504
1.1988
1.20033
1.20085
1.20136
1.20112
1.20135
1.20111
1.20138
1.2011
1.20136
1.20105
1.2013
1.20087
1.20084
1.19981
1.21825
1.21822
1.21861
1.21806
1.21779
1.21728
1.21722
1.21706
1.21724
1.21731
1.2178
1.21806
1.21881
1.21888
1.21944
1.20368
1.20432
1.20499
1.20536
1.20541
1.20547
1.20547
1.20553
1.20547
1.20545
1.20535
1.2053
1.20512
1.2049
1.20468
1.21384
1.21433
1.21494
1.21518
1.21522
1.21514
1.21515
1.21513
1.21516
1.21513
1.21517
1.21515
1.21512
1.21495
1.21483
1.20622
1.20672
1.20736
1.20774
1.20786
1.20788
1.2079
1.20792
1.2079
1.20785
1.20779
1.2077
1.20754
1.20733
1.20717
1.21199
1.21246
1.21305
1.21342
1.21354
1.21354
1.21355
1.21355
1.21354
1.21351
1.21347
1.21339
1.21325
1.21306
1.21292
1.20764
1.20808
1.20866
1.20905
1.20919
1.20921
1.20921
1.20922
1.20921
1.20917
1.20912
1.20903
1.20888
1.20869
1.20855
1.21107
1.21147
1.21202
1.2124
1.21255
1.21256
1.21255
1.21255
1.21254
1.21251
1.21247
1.21239
1.21225
1.21207
1.21194
1.20854
1.20893
1.20946
1.20985
1.21002
1.21004
1.21003
1.21003
1.21002
1.20999
1.20995
1.20986
1.20971
1.20954
1.20941
1.21029
1.21066
1.21116
1.21155
1.21172
1.21174
1.21173
1.21172
1.21171
1.21169
1.21164
1.21156
1.21142
1.21125
1.21114
1.20966
1.21001
1.21051
1.21091
1.21109
1.21113
1.21112
1.21111
1.2111
1.21108
1.21103
1.21093
1.21078
1.21061
1.2105
SCALARS u-velocity float 1
LOOKUP_TABLE default
99.5962
99.5971
99.5981
99.5997
99.6007
99.6021
99.6025
99.6032
99.6028
99.6027
99.6015
99.6007
99.5993
99.5984
99.5976
98.7356
98.7359
98.7363
98.7371
98.738
98.7389
98.7395
98.7398
98.7397
98.7392
98.7384
98.7376
98.7369
98.7365
98.7362
99.6966
99.699
99.7021
99.7069
99.7098
99.714
99.7149
99.7169
99.7154
99.7149
99.7112
99.7086
99.7041
99.7013
99.6989
98.6071
98.6052
98.6028
98.6009
98.5998
98.5994
98.5993
98.5994
98.5994
98.5997
98.6001
98.6013
98.6032
98.6055
98.6074
99.84
99.8489
99.8585
99.8733
99.8802
99.8917
99.8928
99.8989
99.8938
99.8936
99.883
99.8769
99.8629
99.854
99.8454
98.4291
98.4183
98.4049
98.3953
98.3896
98.3882
98.3866
98.3878
98.3868
98.3888
98.3903
98.3962
98.4054
98.4185
98.4288
99.9711
100.017
100.058
100.118
100.143
100.186
100.19
100.211
100.192
100.19
100.15
100.127
100.069
100.03
99.9857
98.1821
98.1337
98.0949
98.089
98.0909
98.1116
98.1165
98.1312
98.1177
98.1145
98.0941
98.0937
98.0979
98.1346
98.1796
99.7889
100.078
100.233
100.494
100.6
100.769
100.795
100.86
100.8
100.778
100.615
100.511
100.257
100.111
99.8317
97.4488
97.3393
97.4544
97.6628
97.8093
98.03
98.1137
98.2063
98.1193
98.0429
97.8227
97.6862
97.4735
97.3531
97.4324
97.8116
99.6665
100.015
101.225
101.723
102.271
102.457
102.592
102.466
102.287
101.753
101.259
100.06
99.7262
97.9513
89.6065
94.6048
96.4238
98.2279
99.2467
100.394
100.81
101.122
100.826
100.433
99.2878
98.3003
96.5012
94.7581
89.5278
90.0012
94.2058
101.737
104.029
106.534
106.988
108.031
107.78
108.048
107.019
106.589
104.122
101.866
94.275
90.2819
123.811
120.299
120.883
119.447
119.76
118.286
118.687
117.822
118.687
118.26
119.766
119.375
120.831
120.352
124.983
134.829
130.576
127.565
124.975
123.931
122.168
121.983
121.208
122
122.186
123.978
124.975
127.635
131.037
135.999
136.998
133.258
130.022
127.581
126.38
124.926
124.552
123.998
124.584
124.98
126.469
127.674
130.263
133.892
138.144
117.886
120.315
118.199
118.468
117.438
117.547
116.819
117.063
116.841
117.548
117.484
118.419
118.335
120.85
120.135
89.3283
101.721
102.68
106.319
106.581
108.688
108.302
109.251
108.269
108.618
106.436
106.029
102.393
102.319
92.181
79.2918
90.7296
95.7014
99.1549
100.366
102.138
102.298
102.956
102.255
102.081
100.147
98.8838
95.4808
91.7894
81.711
96.1419
98.7963
102.032
103.028
103.46
103.955
104.029
104.263
104.026
103.939
103.345
102.862
102.169
100.072
98.6689
91.1846
93.9181
97.0419
98.5974
99.1571
99.686
99.8408
100.056
99.8323
99.6456
98.9956
98.4072
97.2303
95.2245
93.5953
96.0037
98.0391
100.588
101.808
102.19
102.343
102.436
102.507
102.441
102.31
102.054
101.675
100.903
99.3917
98.326
93.5229
95.4717
97.8943
99.2757
99.7327
99.8921
99.9761
100.042
99.9754
99.8402
99.5764
99.1545
98.2642
96.8481
95.7923
95.6741
97.4428
99.6757
101.046
101.522
101.623
101.675
101.707
101.672
101.562
101.367
100.959
100.104
98.8233
97.8639
94.4251
96.1001
98.254
99.6803
100.222
100.337
100.373
100.397
100.363
100.261
100.06
99.6172
98.7279
97.4945
96.5751
95.4945
97.0599
99.1148
100.551
101.139
101.263
101.283
101.293
101.266
101.175
100.977
100.515
99.6249
98.4488
97.5838
94.9378
96.4249
98.417
99.8753
100.516
100.662
100.673
100.673
100.647
100.562
100.353
99.8645
98.9618
97.8187
96.9917
95.4263
96.8343
98.7558
100.217
100.899
101.066
101.071
101.061
101.036
100.956
100.739
100.231
99.3274
98.2215
97.4342
95.2868
96.6305
98.4958
99.9621
100.683
100.874
100.876
100.857
100.832
100.753
100.526
99.9985
99.0928
98.0157
97.2609
95.4176
96.7017
98.5107
99.973
100.725
100.94
100.943
100.917
100.89
100.811
100.573
100.031
99.1287
98.0807
97.3563
SCALARS v-velocity float 1
LOOKUP_TABLE default
-0.000578665
-0.00125307
-0.00200423
-0.00209802
-0.00209184
-0.00159169
-0.00100142
-0.000228191
0.000555681
0.00117188
0.00171713
0.00178373
0.00176536
0.00110433
0.000526924
0.000934091
0.00198815
0.00313642
0.0033243
0.00327429
0.00253267
0.00158565
0.000380806
-0.000841725
-0.00183268
-0.00265004
-0.00280086
-0.00273907
-0.00174001
-0.000848638
0.00016168
0.000730712
0.00110802
0.00173693
0.00170193
0.00153456
0.000748154
-0.000153433
-0.00104427
-0.00182493
-0.00196993
-0.00197619
-0.00130554
-0.000857056
-0.00021179
0.00476005
0.00995725
0.0158314
0.0164193
0.0161822
0.0122182
0.00740837
0.00123629
-0.00499846
-0.00993761
-0.01414
-0.0146886
-0.0144966
-0.00911703
-0.00446239
-0.000639622
-0.00113452
-0.00019277
0.00135611
0.00245191
0.00248316
0.00156377
-4.22425e-05
-0.00161496
-0.00260854
-0.00260879
-0.00158438
-9.03482e-05
0.000927198
0.00052285
0.0167544
0.0320767
0.0501878
0.0496053
0.0483028
0.035577
0.0213315
0.00333239
-0.0148692
-0.029381
-0.0427198
-0.0447706
-0.0463181
-0.0295774
-0.0158112
-0.00436929
-0.00677781
-6.28515e-06
0.00531932
0.0109644
0.00993297
0.00728597
0.000729154
-0.00563458
-0.00882409
-0.0101102
-0.0050982
-0.000472744
0.00621641
0.00383434
0.0744197
0.121861
0.179158
0.176056
0.163257
0.120575
0.0680631
0.00823564
-0.0523125
-0.10502
-0.149191
-0.16346
-0.168382
-0.114293
-0.0710525
0.0153126
0.0949166
0.167643
0.183695
0.189978
0.1453
0.0863845
0.00478807
-0.0755081
-0.137372
-0.182764
-0.179657
-0.167252
-0.0969857
-0.0193469
0.376448
0.50761
0.691472
0.730089
0.601037
0.466971
0.238073
0.0182911
-0.204459
-0.43172
-0.56962
-0.700538
-0.665596
-0.485179
-0.360168
1.11333
1.71711
2.0165
1.90901
1.67138
1.19646
0.642549
0.0212331
-0.592269
-1.15813
-1.6303
-1.88209
-1.99307
-1.71405
-1.14425
-0.315833
3.35443
2.502
3.06329
2.01873
1.69181
0.762632
0.0354379
-0.702892
-1.62395
-1.96567
-3.0054
-2.47299
-3.33337
0.353633
23.0999
19.9483
15.9893
12.9167
9.05745
6.13321
2.95452
0.0666031
-2.7937
-5.99712
-8.87585
-12.7796
-15.7641
-19.7755
-22.871
25.1261
16.0632
13.1653
8.68892
6.6225
3.84209
2.04681
0.0752968
-1.90562
-3.68847
-6.48175
-8.51933
-12.9978
-15.8649
-25.2954
11.4075
7.0998
6.75416
4.1591
3.72741
2.00301
1.21542
0.0686069
-1.131
-1.87166
-3.6706
-4.03932
-6.75242
-7.06357
-11.6394
-8.23246
-8.56739
-4.69584
-4.81129
-2.38887
-2.10586
-0.68494
0.126092
0.864202
2.36006
2.57247
5.07698
4.89849
8.85574
8.46314
-20.8586
-18.1287
-12.1341
-10.0808
-6.22605
-4.40597
-1.84494
0.155871
2.06794
4.74101
6.48216
10.4955
12.509
18.7942
21.534
-23.3185
-18.4041
-14.4292
-10.8694
-7.84236
-4.97252
-2.41671
0.188275
2.61337
5.37242
8.04179
11.357
14.6692
19.1705
23.9013
-2.46833
-0.482021
-2.20752
-1.30045
-1.7261
-0.893671
-0.610023
0.0442967
0.633855
0.968023
1.72919
1.34898
2.17828
0.416626
2.32922
-1.90928
-2.21392
-2.69196
-2.19822
-2.03162
-1.28079
-0.703371
0.0565544
0.769753
1.38307
2.09201
2.28475
2.72886
2.17262
1.88669
-0.197977
-0.269685
-0.368631
-0.202405
-0.332537
-0.165334
-0.128854
0.0106482
0.134175
0.182574
0.343717
0.224181
0.368934
0.224012
0.172113
-0.177365
-0.366727
-0.433824
-0.344115
-0.370589
-0.243767
-0.144621
0.0119008
0.159399
0.265292
0.391032
0.365832
0.429687
0.322283
0.153493
-0.0406085
-0.10961
-0.0821129
-0.0287289
-0.0514945
-0.0349118
-0.0280854
0.0022362
0.0299471
0.0419737
0.064104
0.0427075
0.0766994
0.0783356
0.022592
-0.0473865
-0.115455
-0.0990767
-0.0568127
-0.0581755
-0.0473846
-0.0318128
0.000358696
0.0318038
0.0520388
0.0679946
0.0641828
0.0862002
0.0824215
0.0293897
-0.0289243
-0.0667413
-0.0419799
-0.00724208
-0.00401314
-0.0094521
-0.00995579
-0.000382153
0.00992439
0.0144476
0.0146553
0.0151321
0.0325004
0.0418021
0.015179
-0.0305199
-0.0675585
-0.0502556
-0.0184225
-0.00919606
-0.0125461
-0.0118505
-0.00230671
0.00860731
0.0144037
0.0156995
0.0204731
0.0358569
0.0413828
0.0169943
-0.023903
-0.0507664
-0.0343852
-0.00595081
0.00404354
-0.00108001
-0.00472067
-0.0013344
0.00384857
0.0054053
0.00436075
0.00954939
0.0232525
0.0297505
0.0130353
-0.0232616
-0.049695
-0.0371369
-0.0104962
0.00160279
-0.00138648
-0.00506812
-0.00282557
0.00143069
0.0028449
0.00307123
0.00968083
0.0228451
0.0279541
0.0125729
-0.0190504
-0.0400457
-0.0284063
-0.00405032
0.00797655
0.00504927
-0.000677773
-0.001938
-0.00104413
-0.00179226
-0.00211312
0.00427539
0.0164234
0.0216767
0.0100576
-0.0189362
-0.0404008
-0.0302677
-0.00641572
0.00692966
0.00535937
-0.000424178
-0.00274544
-0.00285136
-0.0038049
-0.00336246
0.00388591
0.0160604
0.0210101
0.00973537
SCALARS Mach float 1
LOOKUP_TABLE default
30.0596
30.0601
30.0607
30.0617
30.0623
30.0632
30.0634
30.0638
30.0636
30.0635
30.0628
30.0623
30.0614
30.0609
30.0604
29.554
29.5542
29.5545
29.555
29.5556
29.5561
29.5566
29.5567
29.5566
29.5563
29.5558
29.5553
29.5548
29.5545
29.5544
30.117
30.1186
30.1205
30.1234
30.1252
30.1277
30.1284
30.1296
30.1287
30.1283
30.126
30.1244
30.1217
30.1199
30.1185
29.4803
29.4791
29.4778
29.4766
29.476
29.4759
29.4758
29.4759
29.4759
29.476
29.4762
29.4769
29.478
29.4794
29.4805
30.2003
30.2057
30.2115
30.2205
30.2246
30.2317
30.2323
30.236
30.2329
30.2328
30.2264
30.2227
30.2142
30.2088
30.2036
29.378
29.3717
29.3636
29.358
29.3546
29.3539
29.3528
29.3537
29.353
29.3543
29.355
29.3586
29.364
29.3718
29.3779
30.2748
30.3028
30.3275
30.3641
30.3791
30.4053
30.4075
30.4202
30.4089
30.408
30.3831
30.3692
30.334
30.3106
30.2837
29.2361
29.2077
29.1846
29.1817
29.1826
29.1956
29.1982
29.2074
29.199
29.1973
29.1846
29.1845
29.1864
29.2083
29.2347
30.1557
30.3315
30.4255
30.5854
30.6502
30.754
30.7694
30.8098
30.7724
30.7596
30.6591
30.596
30.4403
30.3512
30.1817
28.8076
28.746
28.8143
28.941
29.0272
29.1604
29.2093
29.2657
29.2126
29.1681
29.0352
28.9549
28.8258
28.7544
28.7981
28.9471
30.0695
30.2875
31.0305
31.3362
31.6749
31.7872
31.8713
31.7924
31.6844
31.3547
31.051
30.3144
30.1058
29.0304
24.3604
27.2083
28.244
29.333
29.9276
30.6267
30.8735
31.066
30.8829
30.6495
29.952
29.3754
28.2893
27.2966
24.3184
26.0593
28.0264
32.0855
33.2671
34.6183
34.7871
35.3826
35.1949
35.3904
34.803
34.6444
33.316
32.1435
28.0457
26.1801
48.7541
44.9293
45.1222
43.7262
43.8718
42.6859
42.956
42.3026
42.9545
42.6636
43.8713
43.6643
45.0702
44.9498
49.6856
55.8568
52.0752
49.6915
47.552
46.7601
45.3736
45.2435
44.6429
45.2556
45.3859
46.795
47.5485
49.7476
52.4448
56.8561
57.6847
54.4903
51.7473
49.7507
48.7857
47.6179
47.3455
46.8909
47.3706
47.6624
48.8582
49.8316
51.9485
55.0306
58.6829
43.5979
44.9924
42.9277
42.9456
42.0329
42.0245
41.4755
41.6169
41.4939
42.0343
42.0765
42.9352
43.0565
45.4639
45.3356
25.8618
32.46
32.6698
34.714
34.7185
35.984
35.6801
36.2836
35.6612
35.9495
34.6344
34.5576
32.5137
32.9206
27.5317
18.9759
24.8788
27.7116
29.7617
30.5042
31.5946
31.6966
32.106
31.6698
31.5589
30.3702
29.5976
27.5822
25.4668
20.1555
28.0571
29.6378
31.628
32.2421
32.513
32.8157
32.8614
33.0066
32.8598
32.8065
32.4408
32.1389
31.715
30.4144
29.5643
25.1489
26.6905
28.506
29.4344
29.7719
30.093
30.1875
30.3187
30.1823
30.0683
29.674
29.3198
28.6175
27.4441
26.5073
27.9468
29.1517
30.6958
31.4488
31.6861
31.7809
31.8391
31.8831
31.8419
31.7603
31.601
31.3661
30.8901
29.9688
29.3274
26.4772
27.5987
29.0251
29.8549
30.1316
30.2285
30.2796
30.3201
30.2792
30.1967
30.0363
29.7813
29.2468
28.4071
27.7889
27.7452
28.7865
30.1285
30.9669
31.2606
31.3228
31.3552
31.3751
31.3534
31.285
31.1644
30.9132
30.3902
29.6152
29.0411
26.9999
27.9717
29.2469
30.1069
30.4363
30.5065
30.5286
30.543
30.5225
30.4601
30.3371
30.0684
29.5321
28.7965
28.2542
27.6361
28.5547
29.7836
30.658
31.0193
31.0955
31.1081
31.114
31.0974
31.0413
30.9191
30.6358
30.0937
29.3851
28.8693
27.298
28.1647
29.3471
30.2281
30.619
30.7083
30.7151
30.7149
30.6991
30.6468
30.5192
30.2215
29.6758
28.992
28.5022
27.5959
28.4209
29.5666
30.4531
30.8709
30.974
30.977
30.9708
30.9555
30.9056
30.7723
30.4613
29.9129
29.2483
28.7798
27.4972
28.2824
29.3911
30.2777
30.7181
30.8354
30.8363
30.8248
30.8093
30.7609
30.6216
30.2999
29.7516
29.1063
28.6583
27.5995
28.3514
29.4282
30.3133
30.7737
30.9058
30.9071
30.8912
30.8746
30.8258
30.6801
30.349
29.8018
29.173
28.7423
