# vtk DataFile Version 3.0
Structured Grid Example
ASCII
DATASET STRUCTURED_GRID
DIMENSIONS 15 30 1
POINTS 450 FLOAT
0.0833327 0.0333334 0
0.0833313 0.1 0
0.0833301 0.166667 0
0.083329 0.233333 0
0.0833281 0.3 0
0.0833274 0.366667 0
0.083327 0.433333 0
0.0833268 0.5 0
0.083327 0.566667 0
0.0833274 0.633333 0
0.0833281 0.7 0
0.083329 0.766667 0
0.0833301 0.833333 0
0.0833313 0.9 0
0.0833327 0.966667 0
0.249998 0.0333334 0
0.249993 0.1 0
0.249989 0.166667 0
0.249986 0.233334 0
0.249983 0.3 0
0.24998 0.366667 0
0.249979 0.433333 0
0.249979 0.5 0
0.249979 0.566667 0
0.24998 0.633333 0
0.249983 0.7 0
0.249986 0.766666 0
0.249989 0.833333 0
0.249993 0.9 0
0.249998 0.966667 0
0.416662 0.0333336 0
0.416654 0.100001 0
0.416646 0.166668 0
0.416639 0.233334 0
0.416633 0.300001 0
0.416628 0.366667 0
0.416626 0.433334 0
0.416625 0.5 0
0.416626 0.566666 0
0.416628 0.633333 0
0.416633 0.699999 0
0.416639 0.766666 0
0.416646 0.833332 0
0.416654 0.899999 0
0.416662 0.966666 0
0.583326 0.033334 0
0.58331 0.100002 0
0.583296 0.166669 0
0.583284 0.233336 0
0.583273 0.300003 0
0.583266 0.366669 0
0.583261 0.433335 0
0.583259 0.5 0
0.583261 0.566665 0
0.583266 0.633331 0
0.583273 0.699997 0
0.583284 0.766664 0
0.583296 0.833331 0
0.58331 0.899998 0
0.583326 0.966666 0
0.749987 0.0333351 0
0.749961 0.100005 0
0.749937 0.166674 0
0.749915 0.233342 0
0.749898 0.300008 0
0.749884 0.366673 0
0.749876 0.433337 0
0.749874 0.5 0
0.749876 0.566663 0
0.749884 0.633327 0
0.749898 0.699992 0
0.749915 0.766658 0
0.749937 0.833326 0
0.749961 0.899995 0
0.749987 0.966665 0
0.916644 0.033338 0
0.916601 0.100013 0
0.91656 0.166686 0
0.916524 0.233356 0
0.916494 0.300021 0
0.916472 0.366683 0
0.916458 0.433342 0
0.916454 0.5 0
0.916458 0.566658 0
0.916472 0.633317 0
0.916494 0.699979 0
0.916524 0.766644 0
0.91656 0.833314 0
0.916601 0.899987 0
0.916644 0.966662 0
1.0833 0.0333461 0
1.08322 0.100036 0
1.08315 0.166719 0
1.08309 0.233394 0
1.08304 0.300058 0
1.08301 0.366712 0
1.08298 0.433358 0
1.08298 0.5 0
1.08298 0.566642 0
1.08301 0.633288 0
1.08304 0.699942 0
1.08309 0.766606 0
1.08315 0.833281 0
1.08322 0.899964 0
1.0833 0.966654 0
1.24994 0.0333682 0
1.24981 0.100098 0
1.2497 0.16681 0
1.24959 0.233497 0
1.24951 0.300156 0
1.24945 0.366788 0
1.24942 0.433399 0
1.2494 0.5 0
1.24942 0.566601 0
1.24945 0.633212 0
1.24951 0.699844 0
1.24959 0.766503 0
1.2497 0.83319 0
1.24981 0.899902 0
1.24994 0.966632 0
1.41656 0.0334298 0
1.41634 0.10027 0
1.41615 0.16706 0
1.41598 0.233778 0
1.41585 0.300419 0
1.41575 0.36699 0
1.41569 0.433509 0
1.41567 0.5 0
1.41569 0.566491 0
1.41575 0.63301 0
1.41585 0.699581 0
1.41598 0.766222 0
1.41615 0.83294 0
1.41634 0.89973 0
1.41656 0.96657 0
1.58313 0.0336075 0
1.58275 0.10076 0
1.58242 0.167751 0
1.58215 0.234537 0
1.58195 0.301115 0
1.58181 0.367517 0
1.58173 0.433791 0
1.58171 0.5 0
1.58173 0.566209 0
1.58181 0.632483 0
1.58195 0.698885 0
1.58215 0.765463 0
1.58242 0.832249 0
1.58275 0.89924 0
1.58313 0.966392 0
1.74959 0.0341677 0
1.74885 0.102235 0
1.74829 0.169714 0
1.74791 0.236575 0
1.74766 0.302905 0
1.74751 0.368829 0
1.74744 0.434482 0
1.74741 0.5 0
1.74744 0.565518 0
1.74751 0.631171 0
1.74766 0.697095 0
1.74791 0.763425 0
1.74829 0.830286 0
1.74885 0.897765 0
1.74959 0.965832 0
1.91555 0.0363295 0
1.91388 0.107253 0
1.91312 0.175401 0
1.91283 0.241837 0
1.91276 0.307169 0
1.91277 0.371793 0
1.9128 0.435995 0
1.91281 0.5 0
1.9128 0.564005 0
1.91277 0.628207 0
1.91276 0.692831 0
1.91283 0.758163 0
1.91312 0.824599 0
1.91388 0.892747 0
1.91555 0.963671 0
2.07838 0.0591504 0
2.07417 0.125973 0
2.07554 0.190391 0
2.07663 0.253364 0
2.07743 0.315525 0
2.07798 0.377223 0
2.07829 0.438667 0
2.0784 0.5 0
2.07829 0.561333 0
2.07798 0.622777 0
2.07743 0.684475 0
2.07663 0.746636 0
2.07554 0.809609 0
2.07417 0.874027 0
2.07838 0.94085 0
2.24384 0.096456 0
2.23911 0.153168 0
2.24152 0.210396 0
2.24318 0.267878 0
2.24431 0.325632 0
2.24503 0.383617 0
2.24544 0.441767 0
2.24557 0.5 0
2.24544 0.558233 0
2.24503 0.616383 0
2.24431 0.674368 0
2.24318 0.732122 0
2.24152 0.789604 0
2.23911 0.846832 0
2.24384 0.903544 0
2.41462 0.118677 0
2.41292 0.170231 0
2.41356 0.223198 0
2.41406 0.277268 0
2.41444 0.332207 0
2.4147 0.387788 0
2.41485 0.44379 0
2.4149 0.5 0
2.41485 0.55621 0
2.4147 0.612212 0
2.41444 0.667793 0
2.41406 0.722732 0
2.41356 0.776802 0
2.41292 0.829769 0
2.41462 0.881323 0
2.58538 0.118677 0
2.58708 0.170231 0
2.58644 0.223198 0
2.58594 0.277268 0
2.58556 0.332207 0
2.5853 0.387788 0
2.58515 0.44379 0
2.5851 0.5 0
2.58515 0.55621 0
2.5853 0.612212 0
2.58556 0.667793 0
2.58594 0.722732 0
2.58644 0.776802 0
2.58708 0.829769 0
2.58538 0.881323 0
2.75616 0.096456 0
2.76089 0.153168 0
2.75848 0.210396 0
2.75682 0.267878 0
2.75569 0.325632 0
2.75497 0.383617 0
2.75456 0.441767 0
2.75443 0.5 0
2.75456 0.558233 0
2.75497 0.616383 0
2.75569 0.674368 0
2.75682 0.732122 0
2.75848 0.789604 0
2.76089 0.846832 0
2.75616 0.903544 0
2.92162 0.0591504 0
2.92583 0.125973 0
2.92446 0.190391 0
2.92337 0.253364 0
2.92257 0.315525 0
2.92202 0.377223 0
2.92171 0.438667 0
2.9216 0.5 0
2.92171 0.561333 0
2.92202 0.622777 0
2.92257 0.684475 0
2.92337 0.746636 0
2.92446 0.809609 0
2.92583 0.874027 0
2.92162 0.94085 0
3.08445 0.0363295 0
3.08612 0.107253 0
3.08688 0.175401 0
3.08717 0.241837 0
3.08724 0.307169 0
3.08723 0.371793 0
3.0872 0.435995 0
3.08719 0.5 0
3.0872 0.564005 0
3.08723 0.628207 0
3.08724 0.692831 0
3.08717 0.758163 0
3.08688 0.824599 0
3.08612 0.892747 0
3.08445 0.963671 0
3.25041 0.0341677 0
3.25115 0.102235 0
3.25171 0.169714 0
3.25209 0.236575 0
3.25234 0.302905 0
3.25249 0.368829 0
3.25256 0.434482 0
3.25259 0.5 0
3.25256 0.565518 0
3.25249 0.631171 0
3.25234 0.697095 0
3.25209 0.763425 0
3.25171 0.830286 0
3.25115 0.897765 0
3.25041 0.965832 0
3.41687 0.0336075 0
3.41725 0.10076 0
3.41758 0.167751 0
3.41785 0.234537 0
3.41805 0.301115 0
3.41819 0.367517 0
3.41827 0.433791 0
3.41829 0.5 0
3.41827 0.566209 0
3.41819 0.632483 0
3.41805 0.698885 0
3.41785 0.765463 0
3.41758 0.832249 0
3.41725 0.89924 0
3.41687 0.966392 0
3.58344 0.0334298 0
3.58366 0.10027 0
3.58385 0.16706 0
3.58402 0.233778 0
3.58415 0.300419 0
3.58425 0.36699 0
3.58431 0.433509 0
3.58433 0.5 0
3.58431 0.566491 0
3.58425 0.63301 0
3.58415 0.699581 0
3.58402 0.766222 0
3.58385 0.83294 0
3.58366 0.89973 0
3.58344 0.96657 0
3.75006 0.0333682 0
3.75019 0.100098 0
3.7503 0.16681 0
3.75041 0.233497 0
3.75049 0.300156 0
3.75055 0.366788 0
3.75058 0.433399 0
3.7506 0.5 0
3.75058 0.566601 0
3.75055 0.633212 0
3.75049 0.699844 0
3.75041 0.766503 0
3.7503 0.83319 0
3.75019 0.899902 0
3.75006 0.966632 0
3.9167 0.0333461 0
3.91678 0.100036 0
3.91685 0.166719 0
3.91691 0.233394 0
3.91696 0.300058 0
3.91699 0.366712 0
3.91702 0.433358 0
3.91702 0.5 0
3.91702 0.566642 0
3.91699 0.633288 0
3.91696 0.699942 0
3.91691 0.766606 0
3.91685 0.833281 0
3.91678 0.899964 0
3.9167 0.966654 0
4.08336 0.033338 0
4.0834 0.100013 0
4.08344 0.166686 0
4.08348 0.233356 0
4.08351 0.300021 0
4.08353 0.366683 0
4.08354 0.433342 0
4.08355 0.5 0
4.08354 0.566658 0
4.08353 0.633317 0
4.08351 0.699979 0
4.08348 0.766644 0
4.08344 0.833314 0
4.0834 0.899987 0
4.08336 0.966662 0
4.25001 0.0333351 0
4.25004 0.100005 0
4.25006 0.166674 0
4.25008 0.233342 0
4.2501 0.300008 0
4.25012 0.366673 0
4.25012 0.433337 0
4.25013 0.5 0
4.25012 0.566663 0
4.25012 0.633327 0
4.2501 0.699992 0
4.25008 0.766658 0
4.25006 0.833326 0
4.25004 0.899995 0
4.25001 0.966665 0
4.41667 0.033334 0
4.41669 0.100002 0
4.4167 0.166669 0
4.41672 0.233336 0
4.41673 0.300003 0
4.41673 0.366669 0
4.41674 0.433335 0
4.41674 0.5 0
4.41674 0.566665 0
4.41673 0.633331 0
4.41673 0.699997 0
4.41672 0.766664 0
4.4167 0.833331 0
4.41669 0.899998 0
4.41667 0.966666 0
4.58334 0.0333336 0
4.58335 0.100001 0
4.58335 0.166668 0
4.58336 0.233334 0
4.58337 0.300001 0
4.58337 0.366667 0
4.58337 0.433334 0
4.58338 0.5 0
4.58337 0.566666 0
4.58337 0.633333 0
4.58337 0.699999 0
4.58336 0.766666 0
4.58335 0.833332 0
4.58335 0.899999 0
4.58334 0.966666 0
4.75 0.0333334 0
4.75001 0.1 0
4.75001 0.166667 0
4.75001 0.233334 0
4.75002 0.3 0
4.75002 0.366667 0
4.75002 0.433333 0
4.75002 0.5 0
4.75002 0.566667 0
4.75002 0.633333 0
4.75002 0.7 0
4.75001 0.766666 0
4.75001 0.833333 0
4.75001 0.9 0
4.75 0.966667 0
4.91667 0.0333334 0
4.91667 0.1 0
4.91667 0.166667 0
4.91667 0.233333 0
4.91667 0.3 0
4.91667 0.366667 0
4.91667 0.433333 0
4.91667 0.5 0
4.91667 0.566667 0
4.91667 0.633333 0
4.91667 0.7 0
4.91667 0.766667 0
4.91667 0.833333 0
4.91667 0.9 0
4.91667 0.966667 0
POINT_DATA 450
SCALARS pressure float 1
LOOKUP_TABLE default
94471.5
94471.8
94472.1
94472.7
94473.3
94473.8
94474.1
94474.3
94474.1
94473.8
94473.2
94472.7
94472.1
94471.7
94471.4
94200.9
94201.8
94203.5
94205.6
94207.9
94209.8
94211.2
94211.6
94211.2
94209.7
94207.8
94205.5
94203.3
94201.6
94200.7
94530.2
94530.9
94532.5
94534.5
94536.5
94538.5
94539.6
94540.1
94539.5
94538.4
94536.5
94534.4
94532.4
94530.8
94530
94134.4
94134.4
94135.6
94136.1
94137.5
94138
94139
94138.7
94138.9
94137.8
94137.3
94135.8
94135.2
94134.1
94134.1
94614.4
94613.8
94613.6
94612.8
94612.4
94611.8
94611.4
94611.3
94611.4
94611.7
94612.2
94612.7
94613.4
94613.6
94614.2
94056.8
94054.1
94052.9
94047.7
94046.1
94040.9
94040.9
94038
94040.8
94040.6
94045.6
94047.1
94052.2
94053.4
94056
94728.3
94725
94721.5
94714.7
94710
94703.8
94701.4
94699
94701.3
94703.5
94709.7
94714.4
94721.2
94724.6
94727.8
93962.8
93952.5
93948.7
93929.1
93925.1
93906.3
93907.9
93896.8
93907.5
93905.5
93923.9
93927.6
93947
93950.6
93960.8
94893.3
94879.2
94870.2
94847
94836.6
94816.6
94813.6
94804.1
94813.5
94815.9
94836
94845.9
94869.3
94877.9
94892.1
93918.3
93850.4
93841.1
93755.9
93747
93681.7
93689.1
93653.7
93688
93679.8
93743.9
93752.3
93836.3
93845.3
93912.9
95288.9
95146.1
95105.2
94991.1
94955.6
94881.8
94875.6
94842.8
94875.1
94879.7
94954.5
94987.2
95103.4
95141.2
95286.3
94577.7
93816.2
93772.5
93352.9
93300.4
93099.9
93092.2
93020.1
93089.8
93096.4
93293.1
93345
93759.8
93802
94559.2
96102.6
95460.6
95051.1
94756
94614.1
94480.4
94442.8
94402.8
94442.3
94474.8
94613
94742.9
95050.9
95435.8
96103.4
89133.6
90211.7
89827.2
90518.7
90314.6
90747.3
90554.7
90828.6
90554.4
90752
90313.9
90531
89826.3
90238.4
89125.6
90209.3
91518.9
91409.6
92231.8
92070.2
92591.9
92363.1
92702.1
92359.7
92594.9
92059.6
92239.1
91390.6
91532.6
90173.7
87373.7
88850.8
88628.6
89612.6
89371.7
90028.3
89715.1
90159.2
89708.3
90024.8
89350
89602.6
88588.4
88826
87299.3
91771.8
92531
92297.7
92848.4
92624.1
93033.2
92775.8
93093.5
92770.2
93036.4
92605.7
92854
92261.5
92534.5
91708.5
93251.3
92731.4
92597.2
92412.2
92284.8
92282.8
92162.2
92252
92159.4
92299.6
92276.2
92450.3
92579.6
92803.6
93246.3
96873
95839.8
95655.5
95165.2
95019.9
94815.1
94745.8
94710
94752.4
94827.8
95041.9
95191.1
95699.2
95878.3
96973
93019.7
93093.5
93066.1
93092.7
93059.3
93078.9
93044.9
93072.5
93043.9
93080.4
93056.1
93094
93059.9
93091.2
93011.2
95121.6
95040.3
94999.8
94906.3
94869.9
94809.7
94796.9
94777
94799.3
94814.2
94876.9
94914.4
95010.4
95050.4
95134.7
93509.7
93515.3
93515.6
93522
93521.6
93527.9
93525.3
93530.2
93525.2
93528
93521.2
93522.1
93514.9
93515.2
93509.5
94603.8
94600.1
94597.6
94590.6
94590.2
94584.5
94586.5
94583
94587.1
94585.6
94591.7
94592.4
94599.6
94602
94605.7
93761.2
93765.4
93771.5
93780.4
93788.8
93796.7
93801.7
93803.7
93801.8
93796.9
93789
93780.8
93771.9
93766
93761.8
94386
94389.3
94394.8
94402.2
94410.5
94417.1
94422.5
94423.6
94422.6
94417.3
94410.8
94402.5
94395
94389.4
94386
93904.1
93907.7
93914.1
93922.6
93931.2
93938.9
93944.1
93945.9
93944.2
93939.1
93931.5
93923
93914.5
93908.2
93904.6
94289.2
94291.5
94296
94302
94308.2
94313.7
94317.3
94318.7
94317.3
94313.6
94308.1
94301.9
94295.9
94291.3
94288.9
93986.4
93987.7
93990.7
93994.3
93998
94001.4
94003.5
94004.5
94003.6
94001.6
93998.2
93994.6
93991.1
93988.2
93986.9
94252
94252.3
94253.4
94254.6
94255.8
94257
94257.6
94258
94257.6
94257
94255.7
94254.5
94253.3
94252.1
94251.8
94024.4
94024.4
94024.5
94024.4
94024.3
94024.2
94024
94024.1
94024.1
94024.3
94024.5
94024.8
94025
94024.9
94025.1
SCALARS density float 1
LOOKUP_TABLE default
1.21457
1.21458
1.21458
1.21459
1.21459
1.2146
1.2146
1.21461
1.2146
1.2146
1.21459
1.21459
1.21458
1.21458
1.21457
1.21207
1.21208
1.2121
1.21212
1.21214
1.21216
1.21217
1.21218
1.21217
1.21216
1.21214
1.21212
1.2121
1.21208
1.21207
1.2151
1.21511
1.21512
1.21514
1.21516
1.21518
1.21519
1.21519
1.21519
1.21518
1.21516
1.21514
1.21512
1.21511
1.2151
1.21147
1.21147
1.21148
1.21148
1.2115
1.2115
1.21151
1.21151
1.21151
1.2115
1.2115
1.21148
1.21148
1.21147
1.21146
1.21587
1.21587
1.21587
1.21586
1.21586
1.21585
1.21585
1.21585
1.21585
1.21585
1.21586
1.21586
1.21587
1.21587
1.21587
1.21077
1.21074
1.21073
1.21069
1.21067
1.21063
1.21063
1.2106
1.21063
1.21063
1.21067
1.21068
1.21073
1.21074
1.21076
1.2169
1.21687
1.21684
1.21678
1.21674
1.21668
1.21666
1.21664
1.21666
1.21668
1.21674
1.21678
1.21684
1.21687
1.2169
1.20996
1.20987
1.20984
1.20966
1.20962
1.20945
1.20947
1.20937
1.20947
1.20945
1.20961
1.20964
1.20982
1.20985
1.20994
1.21829
1.21817
1.2181
1.2179
1.21781
1.21763
1.21761
1.21752
1.21761
1.21763
1.21781
1.21789
1.21809
1.21815
1.21828
1.20991
1.20928
1.20915
1.20833
1.20823
1.20762
1.20768
1.20735
1.20767
1.2076
1.2082
1.2083
1.20911
1.20924
1.20986
1.22094
1.21985
1.21966
1.21877
1.21853
1.21791
1.21787
1.21758
1.21787
1.21789
1.21853
1.21874
1.21965
1.21981
1.22093
1.21873
1.21076
1.20985
1.20555
1.20485
1.20282
1.20269
1.20197
1.20267
1.20278
1.20478
1.20546
1.20972
1.21063
1.21856
1.22569
1.22089
1.21786
1.21579
1.21475
1.21373
1.21346
1.21314
1.21346
1.21368
1.21475
1.21569
1.21788
1.22063
1.22569
1.16442
1.17506
1.17117
1.17778
1.17588
1.18001
1.1782
1.18079
1.1782
1.18005
1.17588
1.1779
1.17115
1.17544
1.16498
1.17547
1.18818
1.18667
1.19424
1.19259
1.19743
1.19524
1.1984
1.19521
1.19746
1.19249
1.1943
1.1865
1.18853
1.17567
1.14721
1.16162
1.1595
1.16875
1.16651
1.1727
1.16981
1.17397
1.16975
1.17267
1.1663
1.16864
1.15915
1.16163
1.14703
1.18889
1.19649
1.19461
1.19968
1.19771
1.20145
1.19915
1.20203
1.19911
1.20148
1.19754
1.19971
1.1943
1.19677
1.18923
1.20191
1.19792
1.19698
1.19508
1.1939
1.19382
1.19278
1.19355
1.19276
1.19398
1.19382
1.19539
1.19685
1.19902
1.20319
1.23301
1.22546
1.22467
1.22044
1.21918
1.21737
1.21681
1.21649
1.21688
1.21749
1.21935
1.2206
1.2251
1.2263
1.23516
1.19889
1.20041
1.2009
1.20137
1.20109
1.20129
1.20102
1.20128
1.20102
1.20129
1.20102
1.20131
1.20092
1.20092
1.1999
1.21829
1.21826
1.21863
1.21806
1.21777
1.21724
1.21717
1.217
1.21719
1.21727
1.21779
1.21806
1.21883
1.21892
1.21948
1.20365
1.2043
1.20497
1.20535
1.20541
1.20547
1.20548
1.20554
1.20548
1.20546
1.20534
1.20529
1.2051
1.20488
1.20465
1.21374
1.21425
1.21488
1.21517
1.21524
1.2152
1.21524
1.21522
1.21524
1.21519
1.21519
1.21513
1.21506
1.21487
1.21473
1.20606
1.2066
1.20728
1.20773
1.2079
1.20798
1.20804
1.20807
1.20804
1.20796
1.20784
1.20769
1.20746
1.20721
1.20701
1.21181
1.21231
1.21296
1.21341
1.2136
1.21367
1.21373
1.21375
1.21372
1.21364
1.21353
1.21338
1.21316
1.21291
1.21274
1.20747
1.20794
1.20857
1.20904
1.20926
1.20934
1.20939
1.20941
1.20939
1.20931
1.20919
1.20902
1.2088
1.20855
1.20838
1.21092
1.21135
1.21194
1.21239
1.21259
1.21267
1.2127
1.21271
1.21268
1.21262
1.21252
1.21238
1.21217
1.21195
1.2118
1.20844
1.20884
1.20941
1.20984
1.21005
1.21011
1.21012
1.21012
1.2101
1.21006
1.20997
1.20985
1.20966
1.20945
1.20931
1.21024
1.21061
1.21113
1.21153
1.21172
1.21177
1.21177
1.21176
1.21175
1.21171
1.21165
1.21154
1.21138
1.2112
1.21108
1.20965
1.21
1.2105
1.21089
1.21109
1.21113
1.21112
1.21111
1.21109
1.21107
1.21102
1.21092
1.21077
1.2106
1.21049
SCALARS u-velocity float 1
LOOKUP_TABLE default
99.599
99.5991
99.5995
99.6
99.6
99.6005
99.6002
99.6008
99.6005
99.6011
99.6008
99.6011
99.6008
99.6005
99.6004
98.7464
98.7446
98.7418
98.7381
98.7347
98.7315
98.7296
98.7289
98.7297
98.7319
98.7351
98.7387
98.7425
98.7453
98.7471
99.7074
99.7081
99.7076
99.7079
99.7062
99.7061
99.7045
99.7053
99.7049
99.7071
99.7076
99.7097
99.7098
99.7104
99.7099
98.6148
98.6118
98.6068
98.6017
98.5974
98.594
98.5921
98.5913
98.5923
98.5943
98.5978
98.6022
98.6073
98.6123
98.6152
99.8431
99.8519
99.8601
99.8736
99.879
99.8891
99.8895
99.8951
99.8905
99.8911
99.8819
99.8773
99.8646
99.8571
99.8487
98.4252
98.4155
98.4029
98.3949
98.3906
98.3905
98.3898
98.3912
98.3901
98.3911
98.3914
98.3959
98.4035
98.4158
98.4251
99.9618
100.01
100.053
100.118
100.146
100.193
100.199
100.22
100.201
100.197
100.153
100.126
100.064
100.023
99.9764
98.1688
98.1229
98.0881
98.0876
98.0948
98.1204
98.1285
98.1444
98.1297
98.1233
98.098
98.0923
98.091
98.1238
98.1663
99.7754
100.067
100.226
100.493
100.604
100.779
100.807
100.874
100.812
100.788
100.619
100.51
100.25
100.1
99.8182
97.4389
97.331
97.4494
97.6621
97.8129
98.0376
98.1238
98.2175
98.1293
98.0504
97.8262
97.6854
97.4684
97.3447
97.4223
97.8065
99.6619
100.012
101.225
101.724
102.275
102.461
102.597
102.47
102.291
101.755
101.258
100.057
99.7216
97.9461
89.6079
94.6056
96.4243
98.2278
99.2463
100.393
100.809
101.121
100.825
100.432
99.2874
98.3002
96.5016
94.7588
89.5291
90.0071
94.2093
101.738
104.028
106.531
106.982
108.025
107.773
108.041
107.014
106.586
104.121
101.867
94.2784
90.2877
123.818
120.303
120.885
119.446
119.756
118.279
118.679
117.814
118.679
118.254
119.762
119.374
120.833
120.357
124.99
134.832
130.579
127.566
124.975
123.929
122.164
121.979
121.203
121.995
122.183
123.976
124.975
127.636
131.04
136.002
136.998
133.258
130.022
127.58
126.379
124.924
124.55
123.996
124.581
124.978
126.467
127.673
130.262
133.891
138.144
117.882
120.313
118.198
118.468
117.439
117.549
116.822
117.065
116.843
117.55
117.485
118.419
118.334
120.848
120.131
89.3212
101.716
102.678
106.321
106.587
108.697
108.314
109.263
108.28
108.627
106.442
106.032
102.391
102.314
92.1736
79.281
90.7207
95.6972
99.1566
100.373
102.151
102.314
102.973
102.271
102.093
100.155
98.8854
95.4765
91.7803
81.7001
96.1292
98.7856
102.026
103.027
103.465
103.964
104.042
104.277
104.039
103.949
103.35
102.862
102.163
100.062
98.656
91.175
93.9096
97.0362
98.5948
99.158
99.6901
99.8468
100.063
99.8383
99.6497
98.9964
98.4047
97.2244
95.2159
93.5856
96.0004
98.0355
100.585
101.805
102.188
102.342
102.435
102.507
102.44
102.309
102.052
101.673
100.9
99.388
98.3227
93.5286
95.4755
97.8963
99.2749
99.7292
99.8862
99.9684
100.034
99.9677
99.8343
99.5729
99.1537
98.2663
96.8521
95.798
95.6879
97.4537
99.6826
101.047
101.518
101.614
101.663
101.694
101.66
101.553
101.363
100.96
100.111
98.8344
97.8778
94.4432
96.115
98.264
99.6836
100.218
100.328
100.36
100.382
100.35
100.252
100.057
99.6207
98.7381
97.5097
96.5934
95.5119
97.0744
99.1244
100.554
101.136
101.254
101.271
101.279
101.254
101.167
100.974
100.519
99.6348
98.4635
97.6013
94.9487
96.434
98.4226
99.8767
100.513
100.655
100.664
100.662
100.638
100.555
100.351
99.8661
98.9677
97.8281
97.0027
95.4287
96.8362
98.7563
100.216
100.896
101.062
101.067
101.056
101.032
100.952
100.737
100.23
99.3281
98.2236
97.4368
95.2807
96.6253
98.4915
99.9594
100.682
100.874
100.877
100.858
100.833
100.753
100.525
99.996
99.0887
98.0108
97.255
95.4081
96.6939
98.5053
99.9711
100.727
100.945
100.95
100.924
100.897
100.816
100.575
100.03
99.1234
98.073
97.3469
SCALARS v-velocity float 1
LOOKUP_TABLE default
0.000160895
0.000575061
0.000850309
0.00108229
0.00101745
0.000799544
0.000321157
-0.000234795
-0.000780207
-0.00123139
-0.00140327
-0.00140527
-0.00109623
-0.000727513
-0.000214501
-0.000288088
-0.00148676
-0.00165684
-0.00248087
-0.00196427
-0.00176349
-0.00062884
0.000422699
0.00145364
0.00254009
0.00265548
0.00306054
0.0020957
0.00176088
0.000382544
-0.00403709
-0.0104306
-0.0152646
-0.0172761
-0.0161603
-0.0126555
-0.0068359
-8.1083e-05
0.00668004
0.0124973
0.0160084
0.0171336
0.0151393
0.0103487
0.00400294
-0.0016332
-0.00676488
-0.0090808
-0.0121978
-0.0109766
-0.00917295
-0.00411642
0.0013492
0.0067458
0.0116599
0.0132007
0.0140796
0.0105288
0.00767427
0.00195602
-0.0085318
-0.0215364
-0.0309587
-0.0336716
-0.0310669
-0.0237231
-0.0126468
0.000109834
0.012892
0.0238756
0.0311556
0.0336465
0.0308284
0.0214218
0.00844916
0.00867151
0.011431
0.0186401
0.014033
0.013956
0.00894133
0.00679058
0.00351213
2.24942e-05
-0.00241708
-0.00808217
-0.00895844
-0.0145895
-0.00882232
-0.00768788
-0.0107053
-0.0226631
-0.0247756
-0.0221882
-0.0159663
-0.0106749
-0.0040695
0.000932281
0.00611837
0.0121548
0.0171499
0.0226805
0.0245017
0.0222253
0.0102164
0.0706484
0.112771
0.164347
0.160143
0.147211
0.108652
0.0613656
0.00844646
-0.0452029
-0.0927125
-0.132804
-0.147268
-0.15336
-0.105077
-0.0672337
0.0150005
0.0947387
0.166195
0.183082
0.188504
0.144847
0.0859072
0.0049956
-0.0746224
-0.136541
-0.180953
-0.178767
-0.165594
-0.0966817
-0.0189868
0.378978
0.51477
0.701201
0.742139
0.61177
0.476035
0.242801
0.0184854
-0.208808
-0.440432
-0.580043
-0.712336
-0.675135
-0.492226
-0.362653
1.11783
1.72929
2.03401
1.9297
1.69052
1.21195
0.650817
0.0213881
-0.600227
-1.17333
-1.64919
-1.90257
-2.01042
-1.72613
-1.14871
-0.310641
3.36817
2.52188
3.08608
2.04
1.7086
0.771688
0.0355675
-0.711693
-1.6405
-1.98674
-3.02801
-2.49273
-3.34701
0.348478
23.1061
19.9612
16.0063
12.9355
9.07458
6.1465
2.96166
0.0667013
-2.80063
-6.01023
-8.8928
-12.7982
-15.7811
-19.7882
-22.8773
25.1305
16.0694
13.1738
8.69716
6.63024
3.84777
2.04994
0.07534
-1.90866
-3.69407
-6.48941
-8.52751
-13.0061
-15.871
-25.2999
11.4087
7.10126
6.7564
4.16108
3.72946
2.00437
1.21624
0.0686039
-1.13181
-1.87303
-3.67265
-4.0413
-6.75467
-7.06503
-11.6405
-8.23264
-8.56851
-4.69715
-4.81301
-2.39037
-2.10713
-0.685608
0.126053
0.864807
2.36126
2.57391
5.07865
4.89976
8.85683
8.46329
-20.8577
-18.129
-12.1344
-10.0818
-6.22696
-4.40686
-1.84545
0.155795
2.0683
4.74176
6.48295
10.4964
12.5092
18.7943
21.533
-23.3151
-18.3987
-14.4241
-10.8641
-7.8385
-4.96946
-2.41537
0.188156
2.61182
5.36913
8.03772
11.3514
14.6639
19.1649
23.8978
-2.46344
-0.469532
-2.19064
-1.28114
-1.70886
-0.880036
-0.603001
0.0441416
0.62654
0.9541
1.71172
1.32945
2.16126
0.404049
2.32431
-1.90122
-2.19277
-2.6611
-2.16288
-1.99865
-1.25487
-0.689567
0.0563859
0.75562
1.35684
2.05875
2.24917
2.69779
2.15131
1.87854
-0.187704
-0.242725
-0.328355
-0.156179
-0.288685
-0.130874
-0.11029
0.0104546
0.115234
0.147752
0.29954
0.17767
0.328407
0.19685
0.161742
-0.165733
-0.336537
-0.388112
-0.292009
-0.320685
-0.204771
-0.123453
0.0116976
0.137832
0.225914
0.34078
0.313417
0.383692
0.291857
0.141754
-0.0296102
-0.0814919
-0.0389539
0.0200585
-0.00430324
0.00171108
-0.00806073
0.0020234
0.00950513
0.00495226
0.0165534
-0.00639917
0.0332498
0.049988
0.0114923
-0.0388276
-0.0939371
-0.0654771
-0.0193282
-0.0214642
-0.0192136
-0.016273
0.000140597
0.0158376
0.0234641
0.0309215
0.0263828
0.0523246
0.0607032
0.0207457
-0.0239635
-0.0546402
-0.0224144
0.0139682
0.0173024
0.00649884
-0.00099541
-0.000592116
0.000554641
-0.00188682
-0.00700116
-0.00636563
0.0127021
0.0295534
0.0101587
-0.0294852
-0.065548
-0.045983
-0.0147204
-0.00464531
-0.0097641
-0.0100481
-0.00250322
0.00642291
0.0112671
0.0108365
0.0165189
0.0314007
0.0392776
0.0159254
-0.0260457
-0.0568559
-0.0425545
-0.0163441
-0.00504336
-0.00891079
-0.00872747
-0.00150102
0.00753223
0.0129396
0.0131906
0.0197487
0.0313031
0.0358015
0.01517
-0.0270993
-0.059997
-0.0520078
-0.0282672
-0.0148099
-0.0147746
-0.0121713
-0.00294444
0.00830298
0.0160243
0.0193059
0.0273302
0.0376624
0.0382633
0.0164218
-0.0228911
-0.0502367
-0.0433903
-0.0216667
-0.00852605
-0.0082203
-0.00778404
-0.00200998
0.00592146
0.0113515
0.0142833
0.021827
0.0313928
0.0318912
0.0139152
-0.0208105
-0.0453898
-0.0376667
-0.0150903
-0.00123489
-0.00117722
-0.00392491
-0.00275925
0.000620579
0.00270642
0.00477909
0.0125535
0.0234763
0.0260289
0.0116278
SCALARS Mach float 1
LOOKUP_TABLE default
30.0612
30.0614
30.0616
30.0619
30.0618
30.0621
30.062
30.0623
30.0621
30.0625
30.0624
30.0625
30.0623
30.0622
30.0622
29.5608
29.5596
29.5579
29.5556
29.5535
29.5515
29.5503
29.5499
29.5504
29.5517
29.5537
29.556
29.5584
29.5601
29.5612
30.1239
30.1243
30.124
30.124
30.1229
30.1228
30.1217
30.1223
30.1221
30.1234
30.1238
30.1251
30.1253
30.1257
30.1255
29.485
29.4832
29.4802
29.4772
29.4745
29.4725
29.4713
29.4709
29.4714
29.4727
29.4748
29.4775
29.4806
29.4835
29.4853
30.2021
30.2075
30.2124
30.2207
30.224
30.2301
30.2304
30.2338
30.231
30.2313
30.2257
30.2229
30.2152
30.2106
30.2056
29.3754
29.3697
29.3623
29.3578
29.3553
29.3555
29.3551
29.356
29.3553
29.3559
29.3558
29.3584
29.3627
29.3699
29.3754
30.2686
30.2979
30.3243
30.3637
30.3812
30.4098
30.4136
30.4268
30.415
30.4124
30.3853
30.3688
30.3309
30.3058
30.2775
29.2274
29.2007
29.1801
29.1807
29.1852
29.2013
29.206
29.216
29.2068
29.2031
29.1872
29.1836
29.182
29.2013
29.2261
30.1467
30.3241
30.4209
30.5845
30.653
30.7603
30.7779
30.8191
30.7808
30.7658
30.6619
30.5951
30.4357
30.3438
30.1727
28.801
28.7406
28.8111
28.9405
29.0296
29.1654
29.2159
29.2731
29.2191
29.1731
29.0375
28.9544
28.8225
28.7489
28.7915
28.9437
30.0666
30.2859
31.0304
31.3376
31.6776
31.7906
31.8752
31.7958
31.687
31.356
31.0507
30.3127
30.1028
29.0269
24.3609
27.2089
28.2445
29.3333
29.9277
30.6266
30.8732
31.0657
30.8826
30.6494
29.9521
29.3756
28.2898
27.2971
24.3188
26.0633
28.0299
32.0881
33.2678
34.6171
34.7841
35.3783
35.1902
35.3861
34.7999
34.6431
33.3167
32.146
28.0492
26.1841
48.7606
44.9336
45.1246
43.726
43.8692
42.6815
42.9501
42.2964
42.9486
42.6591
43.8687
43.664
45.0725
44.9539
49.6921
55.8599
52.0774
49.6925
47.5518
46.7587
45.3711
45.2403
44.6395
45.2524
45.3834
46.7934
47.5482
49.7486
52.447
56.8591
57.6844
54.4901
51.7468
49.75
48.7846
47.6165
47.3438
46.8892
47.3689
47.6609
48.857
49.8308
51.9478
55.0302
58.6824
43.595
44.9906
42.9265
42.9456
42.0336
42.0259
41.4774
41.6189
41.4957
42.0358
42.0771
42.9351
43.0551
45.4619
45.3325
25.8571
32.456
32.6678
34.7151
34.7223
35.9904
35.6881
36.2922
35.6691
35.9558
34.6382
34.5586
32.5115
32.9164
27.5267
18.9703
24.8735
27.7087
29.7626
30.5087
31.6028
31.707
32.1174
31.6802
31.567
30.3747
29.5983
27.5793
25.4613
20.1497
28.0491
29.6307
31.6234
32.241
32.5158
32.822
32.87
33.0162
32.8684
32.8128
32.4435
32.1378
31.7102
30.4071
29.556
25.1435
26.6854
28.5025
29.4329
29.7724
30.0956
30.1914
30.3232
30.1862
30.0709
29.6745
29.3183
28.6139
27.439
26.5016
27.945
29.1496
30.694
31.4472
31.6849
31.7801
31.8384
31.8826
31.8411
31.7595
31.5997
31.3646
30.8883
29.9666
29.3255
26.4809
27.6013
29.0266
29.8545
30.1294
30.2246
30.2745
30.3148
30.2741
30.1929
30.0341
29.7809
29.2483
28.4098
27.7927
27.7539
28.7935
30.1331
30.9679
31.2579
31.3168
31.3469
31.3661
31.3451
31.279
31.1617
30.9142
30.3949
29.6224
29.05
27.011
27.9811
29.2532
30.109
30.434
30.5002
30.5197
30.5331
30.5136
30.4538
30.3348
30.0705
29.5386
28.8061
28.2657
27.6469
28.5639
29.7898
30.6601
31.0173
31.0896
31.0997
31.1046
31.089
31.0354
30.9172
30.6381
30.1001
29.3946
28.8805
27.3049
28.1705
29.3508
30.2291
30.6171
30.7037
30.7088
30.7078
30.6928
30.6422
30.5174
30.2225
29.6797
28.9981
28.5094
27.5978
28.4224
29.5672
30.4526
30.8694
30.9714
30.9739
30.9672
30.9524
30.903
30.7709
30.461
29.9136
29.25
28.7818
27.4939
28.2796
29.3887
30.2761
30.7174
30.8354
30.8369
30.8254
30.8099
30.7609
30.621
30.2984
29.7493
29.1036
28.6551
27.5941
28.3469
29.425
30.3122
30.7747
30.9087
30.9114
30.8959
30.8789
30.8288
30.6812
30.348
29.7987
29.1685
28.7368
