# vtk DataFile Version 3.0
Structured Grid Example
ASCII
DATASET STRUCTURED_GRID
DIMENSIONS 15 30 1
POINTS 450 FLOAT
0.0833327 0.0333334 0
0.0833313 0.1 0
0.0833301 0.166667 0
0.083329 0.233333 0
0.0833281 0.3 0
0.0833274 0.366667 0
0.083327 0.433333 0
0.0833268 0.5 0
0.083327 0.566667 0
0.0833274 0.633333 0
0.0833281 0.7 0
0.083329 0.766667 0
0.0833301 0.833333 0
0.0833313 0.9 0
0.0833327 0.966667 0
0.249998 0.0333334 0
0.249993 0.1 0
0.249989 0.166667 0
0.249986 0.233334 0
0.249983 0.3 0
0.24998 0.366667 0
0.249979 0.433333 0
0.249979 0.5 0
0.249979 0.566667 0
0.24998 0.633333 0
0.249983 0.7 0
0.249986 0.766666 0
0.249989 0.833333 0
0.249993 0.9 0
0.249998 0.966667 0
0.416662 0.0333336 0
0.416654 0.100001 0
0.416646 0.166668 0
0.416639 0.233334 0
0.416633 0.300001 0
0.416628 0.366667 0
0.416626 0.433334 0
0.416625 0.5 0
0.416626 0.566666 0
0.416628 0.633333 0
0.416633 0.699999 0
0.416639 0.766666 0
0.416646 0.833332 0
0.416654 0.899999 0
0.416662 0.966666 0
0.583326 0.033334 0
0.58331 0.100002 0
0.583296 0.166669 0
0.583284 0.233336 0
0.583273 0.300003 0
0.583266 0.366669 0
0.583261 0.433335 0
0.583259 0.5 0
0.583261 0.566665 0
0.583266 0.633331 0
0.583273 0.699997 0
0.583284 0.766664 0
0.583296 0.833331 0
0.58331 0.899998 0
0.583326 0.966666 0
0.749987 0.0333351 0
0.749961 0.100005 0
0.749937 0.166674 0
0.749915 0.233342 0
0.749898 0.300008 0
0.749884 0.366673 0
0.749876 0.433337 0
0.749874 0.5 0
0.749876 0.566663 0
0.749884 0.633327 0
0.749898 0.699992 0
0.749915 0.766658 0
0.749937 0.833326 0
0.749961 0.899995 0
0.749987 0.966665 0
0.916644 0.033338 0
0.916601 0.100013 0
0.91656 0.166686 0
0.916524 0.233356 0
0.916494 0.300021 0
0.916472 0.366683 0
0.916458 0.433342 0
0.916454 0.5 0
0.916458 0.566658 0
0.916472 0.633317 0
0.916494 0.699979 0
0.916524 0.766644 0
0.91656 0.833314 0
0.916601 0.899987 0
0.916644 0.966662 0
1.0833 0.0333461 0
1.08322 0.100036 0
1.08315 0.166719 0
1.08309 0.233394 0
1.08304 0.300058 0
1.08301 0.366712 0
1.08298 0.433358 0
1.08298 0.5 0
1.08298 0.566642 0
1.08301 0.633288 0
1.08304 0.699942 0
1.08309 0.766606 0
1.08315 0.833281 0
1.08322 0.899964 0
1.0833 0.966654 0
1.24994 0.0333682 0
1.24981 0.100098 0
1.2497 0.16681 0
1.24959 0.233497 0
1.24951 0.300156 0
1.24945 0.366788 0
1.24942 0.433399 0
1.2494 0.5 0
1.24942 0.566601 0
1.24945 0.633212 0
1.24951 0.699844 0
1.24959 0.766503 0
1.2497 0.83319 0
1.24981 0.899902 0
1.24994 0.966632 0
1.41656 0.0334298 0
1.41634 0.10027 0
1.41615 0.16706 0
1.41598 0.233778 0
1.41585 0.300419 0
1.41575 0.36699 0
1.41569 0.433509 0
1.41567 0.5 0
1.41569 0.566491 0
1.41575 0.63301 0
1.41585 0.699581 0
1.41598 0.766222 0
1.41615 0.83294 0
1.41634 0.89973 0
1.41656 0.96657 0
1.58313 0.0336075 0
1.58275 0.10076 0
1.58242 0.167751 0
1.58215 0.234537 0
1.58195 0.301115 0
1.58181 0.367517 0
1.58173 0.433791 0
1.58171 0.5 0
1.58173 0.566209 0
1.58181 0.632483 0
1.58195 0.698885 0
1.58215 0.765463 0
1.58242 0.832249 0
1.58275 0.89924 0
1.58313 0.966392 0
1.74959 0.0341677 0
1.74885 0.102235 0
1.74829 0.169714 0
1.74791 0.236575 0
1.74766 0.302905 0
1.74751 0.368829 0
1.74744 0.434482 0
1.74741 0.5 0
1.74744 0.565518 0
1.74751 0.631171 0
1.74766 0.697095 0
1.74791 0.763425 0
1.74829 0.830286 0
1.74885 0.897765 0
1.74959 0.965832 0
1.91555 0.0363295 0
1.91388 0.107253 0
1.91312 0.175401 0
1.91283 0.241837 0
1.91276 0.307169 0
1.91277 0.371793 0
1.9128 0.435995 0
1.91281 0.5 0
1.9128 0.564005 0
1.91277 0.628207 0
1.91276 0.692831 0
1.91283 0.758163 0
1.91312 0.824599 0
1.91388 0.892747 0
1.91555 0.963671 0
2.07838 0.0591504 0
2.07417 0.125973 0
2.07554 0.190391 0
2.07663 0.253364 0
2.07743 0.315525 0
2.07798 0.377223 0
2.07829 0.438667 0
2.0784 0.5 0
2.07829 0.561333 0
2.07798 0.622777 0
2.07743 0.684475 0
2.07663 0.746636 0
2.07554 0.809609 0
2.07417 0.874027 0
2.07838 0.94085 0
2.24384 0.096456 0
2.23911 0.153168 0
2.24152 0.210396 0
2.24318 0.267878 0
2.24431 0.325632 0
2.24503 0.383617 0
2.24544 0.441767 0
2.24557 0.5 0
2.24544 0.558233 0
2.24503 0.616383 0
2.24431 0.674368 0
2.24318 0.732122 0
2.24152 0.789604 0
2.23911 0.846832 0
2.24384 0.903544 0
2.41462 0.118677 0
2.41292 0.170231 0
2.41356 0.223198 0
2.41406 0.277268 0
2.41444 0.332207 0
2.4147 0.387788 0
2.41485 0.44379 0
2.4149 0.5 0
2.41485 0.55621 0
2.4147 0.612212 0
2.41444 0.667793 0
2.41406 0.722732 0
2.41356 0.776802 0
2.41292 0.829769 0
2.41462 0.881323 0
2.58538 0.118677 0
2.58708 0.170231 0
2.58644 0.223198 0
2.58594 0.277268 0
2.58556 0.332207 0
2.5853 0.387788 0
2.58515 0.44379 0
2.5851 0.5 0
2.58515 0.55621 0
2.5853 0.612212 0
2.58556 0.667793 0
2.58594 0.722732 0
2.58644 0.776802 0
2.58708 0.829769 0
2.58538 0.881323 0
2.75616 0.096456 0
2.76089 0.153168 0
2.75848 0.210396 0
2.75682 0.267878 0
2.75569 0.325632 0
2.75497 0.383617 0
2.75456 0.441767 0
2.75443 0.5 0
2.75456 0.558233 0
2.75497 0.616383 0
2.75569 0.674368 0
2.75682 0.732122 0
2.75848 0.789604 0
2.76089 0.846832 0
2.75616 0.903544 0
2.92162 0.0591504 0
2.92583 0.125973 0
2.92446 0.190391 0
2.92337 0.253364 0
2.92257 0.315525 0
2.92202 0.377223 0
2.92171 0.438667 0
2.9216 0.5 0
2.92171 0.561333 0
2.92202 0.622777 0
2.92257 0.684475 0
2.92337 0.746636 0
2.92446 0.809609 0
2.92583 0.874027 0
2.92162 0.94085 0
3.08445 0.0363295 0
3.08612 0.107253 0
3.08688 0.175401 0
3.08717 0.241837 0
3.08724 0.307169 0
3.08723 0.371793 0
3.0872 0.435995 0
3.08719 0.5 0
3.0872 0.564005 0
3.08723 0.628207 0
3.08724 0.692831 0
3.08717 0.758163 0
3.08688 0.824599 0
3.08612 0.892747 0
3.08445 0.963671 0
3.25041 0.0341677 0
3.25115 0.102235 0
3.25171 0.169714 0
3.25209 0.236575 0
3.25234 0.302905 0
3.25249 0.368829 0
3.25256 0.434482 0
3.25259 0.5 0
3.25256 0.565518 0
3.25249 0.631171 0
3.25234 0.697095 0
3.25209 0.763425 0
3.25171 0.830286 0
3.25115 0.897765 0
3.25041 0.965832 0
3.41687 0.0336075 0
3.41725 0.10076 0
3.41758 0.167751 0
3.41785 0.234537 0
3.41805 0.301115 0
3.41819 0.367517 0
3.41827 0.433791 0
3.41829 0.5 0
3.41827 0.566209 0
3.41819 0.632483 0
3.41805 0.698885 0
3.41785 0.765463 0
3.41758 0.832249 0
3.41725 0.89924 0
3.41687 0.966392 0
3.58344 0.0334298 0
3.58366 0.10027 0
3.58385 0.16706 0
3.58402 0.233778 0
3.58415 0.300419 0
3.58425 0.36699 0
3.58431 0.433509 0
3.58433 0.5 0
3.58431 0.566491 0
3.58425 0.63301 0
3.58415 0.699581 0
3.58402 0.766222 0
3.58385 0.83294 0
3.58366 0.89973 0
3.58344 0.96657 0
3.75006 0.0333682 0
3.75019 0.100098 0
3.7503 0.16681 0
3.75041 0.233497 0
3.75049 0.300156 0
3.75055 0.366788 0
3.75058 0.433399 0
3.7506 0.5 0
3.75058 0.566601 0
3.75055 0.633212 0
3.75049 0.699844 0
3.75041 0.766503 0
3.7503 0.83319 0
3.75019 0.899902 0
3.75006 0.966632 0
3.9167 0.0333461 0
3.91678 0.100036 0
3.91685 0.166719 0
3.91691 0.233394 0
3.91696 0.300058 0
3.91699 0.366712 0
3.91702 0.433358 0
3.91702 0.5 0
3.91702 0.566642 0
3.91699 0.633288 0
3.91696 0.699942 0
3.91691 0.766606 0
3.91685 0.833281 0
3.91678 0.899964 0
3.9167 0.966654 0
4.08336 0.033338 0
4.0834 0.100013 0
4.08344 0.166686 0
4.08348 0.233356 0
4.08351 0.300021 0
4.08353 0.366683 0
4.08354 0.433342 0
4.08355 0.5 0
4.08354 0.566658 0
4.08353 0.633317 0
4.08351 0.699979 0
4.08348 0.766644 0
4.08344 0.833314 0
4.0834 0.899987 0
4.08336 0.966662 0
4.25001 0.0333351 0
4.25004 0.100005 0
4.25006 0.166674 0
4.25008 0.233342 0
4.2501 0.300008 0
4.25012 0.366673 0
4.25012 0.433337 0
4.25013 0.5 0
4.25012 0.566663 0
4.25012 0.633327 0
4.2501 0.699992 0
4.25008 0.766658 0
4.25006 0.833326 0
4.25004 0.899995 0
4.25001 0.966665 0
4.41667 0.033334 0
4.41669 0.100002 0
4.4167 0.166669 0
4.41672 0.233336 0
4.41673 0.300003 0
4.41673 0.366669 0
4.41674 0.433335 0
4.41674 0.5 0
4.41674 0.566665 0
4.41673 0.633331 0
4.41673 0.699997 0
4.41672 0.766664 0
4.4167 0.833331 0
4.41669 0.899998 0
4.41667 0.966666 0
4.58334 0.0333336 0
4.58335 0.100001 0
4.58335 0.166668 0
4.58336 0.233334 0
4.58337 0.300001 0
4.58337 0.366667 0
4.58337 0.433334 0
4.58338 0.5 0
4.58337 0.566666 0
4.58337 0.633333 0
4.58337 0.699999 0
4.58336 0.766666 0
4.58335 0.833332 0
4.58335 0.899999 0
4.58334 0.966666 0
4.75 0.0333334 0
4.75001 0.1 0
4.75001 0.166667 0
4.75001 0.233334 0
4.75002 0.3 0
4.75002 0.366667 0
4.75002 0.433333 0
4.75002 0.5 0
4.75002 0.566667 0
4.75002 0.633333 0
4.75002 0.7 0
4.75001 0.766666 0
4.75001 0.833333 0
4.75001 0.9 0
4.75 0.966667 0
4.91667 0.0333334 0
4.91667 0.1 0
4.91667 0.166667 0
4.91667 0.233333 0
4.91667 0.3 0
4.91667 0.366667 0
4.91667 0.433333 0
4.91667 0.5 0
4.91667 0.566667 0
4.91667 0.633333 0
4.91667 0.7 0
4.91667 0.766667 0
4.91667 0.833333 0
4.91667 0.9 0
4.91667 0.966667 0
POINT_DATA 450
SCALARS pressure float 1
LOOKUP_TABLE default
94470
94470.5
94471.4
94472.6
94473.7
94474.8
94475.5
94475.8
94475.5
94474.8
94473.7
94472.5
94471.3
94470.5
94469.9
94201.5
94202.1
94203.8
94205.7
94207.8
94209.6
94210.8
94211.2
94210.8
94209.5
94207.7
94205.6
94203.7
94202
94201.3
94534.9
94534.6
94534.9
94534.9
94535
94535.2
94535.1
94535.4
94535.1
94535.2
94535
94534.9
94534.9
94534.6
94534.9
94142.1
94140.6
94139.5
94136.8
94135
94132.6
94131.6
94130.8
94131.6
94132.5
94134.9
94136.6
94139.3
94140.5
94142
94624.5
94622
94618.8
94613.8
94609.2
94604.8
94601.9
94600.9
94601.9
94604.8
94609.2
94613.8
94618.8
94622
94624.5
94067.5
94062.9
94058.4
94048.6
94042.6
94033.3
94030.7
94026.8
94030.6
94033.1
94042.3
94048.2
94057.9
94062.4
94066.9
94737.2
94732.5
94726.1
94715.6
94707.1
94697.4
94692.9
94689.6
94692.9
94697.3
94707
94715.4
94726
94732.3
94737
93968.6
93957.6
93951.8
93929.7
93923.3
93902.1
93902.4
93890.6
93902.1
93901.4
93922.2
93928.4
93950.3
93955.9
93966.9
94894.6
94880.6
94870.9
94847.1
94836
94815.2
94812
94802.2
94811.9
94814.6
94835.5
94846.1
94870.2
94879.5
94893.7
93916.1
93848.8
93839.9
93755.7
93747.7
93683
93691.1
93655.8
93690.1
93681.2
93744.7
93752.2
93835.4
93843.9
93910.8
95283.8
95142.2
95102.7
94990.7
94957.3
94885.3
94880.3
94847.9
94880
94883.2
94956.2
94986.9
95101
95137.4
95281.4
94571.9
93811.6
93769.7
93352.5
93302.4
93104
93097.7
93026.1
93095.4
93100.6
93295.1
93344.7
93757.1
93797.4
94553.5
96097.7
95456.8
95049.1
94756
94616.2
94484.2
94447.8
94408.1
94447.3
94478.5
94615.1
94742.9
95048.9
95432.2
96098.6
89131.5
90210
89826.3
90518.7
90315.3
90748.7
90556.6
90830.6
90556.3
90753.5
90314.6
90530.9
89825.4
90236.7
89123.5
90208.9
91518.5
91409.3
92231.6
92070.2
92592
92363.2
92702.3
92359.8
92595.1
92059.5
92238.9
91390.3
91532.1
90173.2
87373.5
88850.7
88628.3
89612.3
89371.5
90028
89714.8
90158.9
89707.9
90024.5
89349.6
89602.3
88588.1
88825.7
87299.1
91769.2
92528.9
92296.2
92847.5
92623.8
93033.4
92776.3
93094.2
92770.7
93036.6
92605.4
92853.1
92259.9
92532.3
91705.7
93243.7
92726.1
92594
92411.8
92286.8
92286.8
92167.6
92257.7
92164.8
92303.6
92278
92449.8
92576.2
92798.1
93238.4
96858.4
95828.7
95649
95165.2
95025.7
94826.1
94760.2
94725.6
94766.8
94838.8
95047.6
95190.9
95692.5
95867
96958.2
93000.2
93077.8
93056.8
93092.1
93067.2
93094.3
93065.2
93094.6
93064.2
93095.7
93063.8
93093.2
93050.4
93075.3
92991.4
95099.9
95022.5
94989
94905
94878
94826.3
94819
94801.2
94821.4
94830.7
94884.9
94912.9
94999.4
95032.3
95112.7
93489.2
93498.1
93505
93520
93528.3
93542.5
93544.9
93552
93544.7
93542.6
93527.7
93519.9
93504.1
93497.7
93488.6
94588.7
94587
94589.4
94588.5
94594.2
94594.4
94599.8
94598
94600.3
94595.4
94595.6
94590.1
94591.2
94588.6
94590.3
93754.5
93759.2
93767.6
93778.9
93789.8
93800.3
93806.4
93809.4
93806.4
93800.4
93789.8
93779.1
93767.7
93759.5
93754.9
94388.8
94390.8
94396
94401.9
94408.9
94414.5
94418.8
94420
94418.9
94414.6
94409
94402
94395.9
94390.7
94388.6
93915.2
93916.4
93920
93924
93928.1
93932
93934.2
93935.5
93934.3
93932.1
93928.2
93924.1
93920.2
93916.7
93915.6
94305
94304.3
94304.7
94304.4
94304.4
94304.4
94304.2
94304.4
94304.2
94304.3
94304.2
94304.1
94304.4
94303.9
94304.6
94001.9
94000.5
93999.2
93996.7
93994.4
93992.3
93990.7
93990.5
93990.8
93992.4
93994.5
93996.9
93999.4
94000.8
94002.3
94263.5
94261.8
94259.6
94256
94252.7
94249.6
94247.5
94246.9
94247.4
94249.6
94252.5
94255.9
94259.4
94261.6
94263.4
94028.8
94027.9
94026.7
94024.5
94022.4
94020.4
94019.1
94018.7
94019.2
94020.6
94022.6
94024.9
94027.1
94028.6
94029.6
SCALARS density float 1
LOOKUP_TABLE default
1.21456
1.21457
1.21457
1.21459
1.2146
1.21461
1.21462
1.21462
1.21462
1.21461
1.2146
1.21459
1.21457
1.21457
1.21456
1.21208
1.21209
1.2121
1.21212
1.21214
1.21216
1.21217
1.21217
1.21217
1.21216
1.21214
1.21212
1.2121
1.21209
1.21208
1.21514
1.21514
1.21514
1.21514
1.21515
1.21515
1.21515
1.21515
1.21515
1.21515
1.21515
1.21515
1.21514
1.21514
1.21514
1.21154
1.21152
1.21151
1.21149
1.21148
1.21145
1.21145
1.21144
1.21145
1.21145
1.21148
1.21149
1.21151
1.21152
1.21154
1.21596
1.21594
1.21591
1.21587
1.21583
1.21579
1.21576
1.21575
1.21576
1.21579
1.21583
1.21587
1.21592
1.21594
1.21597
1.21086
1.21082
1.21078
1.2107
1.21064
1.21056
1.21054
1.2105
1.21053
1.21056
1.21064
1.21069
1.21078
1.21082
1.21086
1.21698
1.21694
1.21688
1.21679
1.21671
1.21662
1.21658
1.21655
1.21658
1.21662
1.21671
1.21679
1.21688
1.21694
1.21698
1.21001
1.20991
1.20986
1.20966
1.2096
1.20941
1.20942
1.20931
1.20942
1.20941
1.2096
1.20965
1.20985
1.2099
1.21
1.2183
1.21818
1.21811
1.2179
1.21781
1.21762
1.21759
1.2175
1.21759
1.21762
1.21781
1.2179
1.2181
1.21817
1.2183
1.20989
1.20927
1.20914
1.20833
1.20823
1.20763
1.2077
1.20737
1.20769
1.20761
1.20821
1.2083
1.2091
1.20923
1.20984
1.22089
1.21982
1.21964
1.21877
1.21855
1.21794
1.21792
1.21763
1.21791
1.21792
1.21854
1.21874
1.21963
1.21978
1.22089
1.21868
1.21072
1.20982
1.20555
1.20487
1.20286
1.20274
1.20203
1.20272
1.20282
1.2048
1.20546
1.2097
1.21059
1.21851
1.22565
1.22086
1.21785
1.21579
1.21477
1.21377
1.21351
1.21319
1.2135
1.21372
1.21477
1.21569
1.21786
1.2206
1.22564
1.1644
1.17504
1.17116
1.17778
1.17589
1.18002
1.17822
1.18081
1.17822
1.18007
1.17588
1.1779
1.17114
1.17542
1.16496
1.17546
1.18817
1.18667
1.19424
1.19259
1.19743
1.19524
1.19841
1.19521
1.19746
1.19249
1.1943
1.18649
1.18852
1.17567
1.1472
1.16162
1.1595
1.16874
1.1665
1.1727
1.16981
1.17396
1.16975
1.17267
1.16629
1.16863
1.15915
1.16163
1.14702
1.18886
1.19647
1.1946
1.19967
1.19771
1.20146
1.19916
1.20203
1.19911
1.20149
1.19754
1.1997
1.19428
1.19675
1.18921
1.20183
1.19787
1.19695
1.19507
1.19392
1.19385
1.19283
1.1936
1.19281
1.19401
1.19384
1.19538
1.19681
1.19897
1.20311
1.23287
1.22535
1.22461
1.22044
1.21923
1.21748
1.21695
1.21663
1.21701
1.21759
1.21941
1.22059
1.22503
1.22619
1.23502
1.19871
1.20027
1.20082
1.20137
1.20116
1.20143
1.20121
1.20148
1.2012
1.20144
1.20109
1.2013
1.20083
1.20078
1.19972
1.21809
1.21809
1.21853
1.21805
1.21785
1.2174
1.21737
1.21723
1.2174
1.21743
1.21786
1.21805
1.21873
1.21875
1.21927
1.20346
1.20414
1.20487
1.20534
1.20547
1.20561
1.20566
1.20574
1.20566
1.20559
1.2054
1.20527
1.205
1.20472
1.20445
1.2136
1.21413
1.21481
1.21515
1.21528
1.21529
1.21536
1.21536
1.21537
1.21528
1.21523
1.21511
1.21499
1.21474
1.21459
1.206
1.20655
1.20724
1.20771
1.20791
1.20802
1.20808
1.20812
1.20808
1.20799
1.20784
1.20767
1.20743
1.20715
1.20695
1.21184
1.21233
1.21297
1.21341
1.21359
1.21365
1.21369
1.21371
1.21369
1.21362
1.21352
1.21337
1.21317
1.21293
1.21276
1.20757
1.20802
1.20863
1.20905
1.20923
1.20928
1.2093
1.20932
1.20929
1.20924
1.20916
1.20903
1.20885
1.20862
1.20848
1.21107
1.21147
1.21202
1.21241
1.21256
1.21258
1.21257
1.21258
1.21256
1.21253
1.21248
1.2124
1.21225
1.21206
1.21194
1.20858
1.20896
1.20949
1.20986
1.21001
1.21002
1.21
1.21
1.20999
1.20997
1.20994
1.20987
1.20974
1.20957
1.20945
1.21034
1.21069
1.21119
1.21155
1.2117
1.2117
1.21167
1.21166
1.21165
1.21165
1.21162
1.21156
1.21144
1.21129
1.21119
1.20968
1.21003
1.21052
1.2109
1.21107
1.2111
1.21108
1.21106
1.21105
1.21104
1.211
1.21092
1.21079
1.21063
1.21052
SCALARS u-velocity float 1
LOOKUP_TABLE default
99.6043
99.6036
99.6022
99.6005
99.5982
99.5966
99.595
99.5951
99.5954
99.5973
99.5991
99.6017
99.6036
99.6051
99.606
98.7503
98.7481
98.744
98.7387
98.7336
98.7289
98.7261
98.7249
98.7262
98.7292
98.734
98.7393
98.7446
98.7488
98.7511
99.7057
99.7069
99.7068
99.7078
99.7068
99.7072
99.7061
99.707
99.7065
99.7082
99.7082
99.7095
99.7089
99.7092
99.7082
98.6096
98.6076
98.6042
98.6012
98.599
98.5975
98.5969
98.5965
98.597
98.5977
98.5993
98.6016
98.6046
98.608
98.6099
99.8351
99.8454
99.856
99.8729
99.8816
99.8948
99.8972
99.9035
99.8982
99.8967
99.8845
99.8765
99.8604
99.8504
99.8405
98.4161
98.4079
98.3981
98.3939
98.3933
98.3967
98.3982
98.4004
98.3984
98.3972
98.394
98.3947
98.3985
98.408
98.4157
99.9543
100.004
100.049
100.117
100.149
100.198
100.206
100.228
100.208
100.202
100.155
100.125
100.06
100.016
99.9686
98.165
98.1196
98.0862
98.0873
98.0963
98.1236
98.1326
98.1489
98.1337
98.1264
98.0994
98.0919
98.0889
98.1203
98.1623
99.7753
100.067
100.226
100.493
100.604
100.779
100.807
100.874
100.812
100.788
100.619
100.51
100.25
100.099
99.8179
97.4433
97.3344
97.4518
97.6628
97.8119
98.0351
98.1203
98.2137
98.1257
98.048
97.8252
97.686
97.4707
97.3481
97.4266
97.8129
99.6672
100.016
101.225
101.722
102.271
102.455
102.59
102.464
102.286
101.753
101.259
100.06
99.7268
97.9525
89.6138
94.6106
96.4269
98.2275
99.2431
100.388
100.802
101.113
100.817
100.426
99.2842
98.2999
96.5042
94.7638
89.5351
90.0125
94.2135
101.741
104.028
106.529
106.979
108.02
107.768
108.036
107.01
106.584
104.121
101.869
94.2827
90.2932
123.821
120.305
120.886
119.446
119.756
118.279
118.678
117.813
118.678
118.253
119.763
119.375
120.834
120.358
124.993
134.83
130.577
127.564
124.974
123.929
122.165
121.98
121.205
121.997
122.184
123.976
124.974
127.635
131.038
136
136.993
133.254
130.019
127.579
126.38
124.927
124.554
124
124.585
124.98
126.468
127.672
130.26
133.887
138.139
117.876
120.309
118.196
118.468
117.441
117.553
116.827
117.071
116.848
117.554
117.487
118.419
118.332
120.844
120.125
89.3189
101.715
102.678
106.322
106.588
108.699
108.315
109.265
108.282
108.629
106.443
106.032
102.391
102.313
92.1715
79.2886
90.727
95.7013
99.1575
100.371
102.146
102.307
102.966
102.264
102.088
100.152
98.8865
95.4808
91.7869
81.7079
96.1477
98.8004
102.036
103.03
103.462
103.955
104.028
104.262
104.025
103.939
103.346
102.865
102.173
100.077
98.6748
91.1953
93.9262
97.0473
98.5984
99.1541
99.6791
99.8313
100.045
99.8229
99.6387
98.9926
98.4084
97.2358
95.2329
93.6062
96.0188
98.0505
100.594
101.807
102.183
102.33
102.419
102.488
102.423
102.297
102.047
101.675
100.909
99.4034
98.3413
93.5389
95.484
97.9007
99.2745
99.7239
99.8762
99.9555
100.02
99.9549
99.8243
99.5677
99.1535
98.271
96.8608
95.8086
95.6886
97.4544
99.6819
101.045
101.514
101.609
101.657
101.688
101.654
101.548
101.359
100.958
100.11
98.8353
97.8787
94.4355
96.109
98.2593
99.6815
100.219
100.33
100.364
100.386
100.354
100.254
100.057
99.6186
98.7334
97.5038
96.5858
95.4991
97.0645
99.1182
100.554
101.141
101.264
101.284
101.293
101.267
101.176
100.979
100.518
99.6285
98.4536
97.5885
94.9342
96.4227
98.4162
99.8771
100.52
100.668
100.681
100.681
100.655
100.568
100.358
99.8664
98.9612
97.8167
96.9882
95.4164
96.8265
98.7512
100.217
100.903
101.075
101.082
101.073
101.048
100.964
100.743
100.231
99.3229
98.2137
97.4244
95.2736
96.6195
98.4888
99.9603
100.686
100.882
100.887
100.869
100.843
100.761
100.529
99.9967
99.0858
98.0048
97.2477
95.4066
96.6921
98.504
99.9699
100.726
100.944
100.949
100.924
100.896
100.815
100.574
100.028
99.1219
98.071
97.3452
SCALARS v-velocity float 1
LOOKUP_TABLE default
-0.000393654
-0.000937445
-0.00134043
-0.00147232
-0.00136801
-0.00108688
-0.000666482
-0.000183784
0.000307186
0.000748161
0.00106476
0.00121733
0.00114579
0.000815924
0.000351559
-0.00273083
-0.00779771
-0.0112001
-0.0133206
-0.0123634
-0.00986768
-0.00502566
0.000490605
0.00598462
0.0107681
0.0131659
0.0139904
0.0117082
0.0081124
0.00284113
-0.00651206
-0.0166399
-0.0249199
-0.0280308
-0.0266692
-0.0207224
-0.0112826
-2.44002e-05
0.0112401
0.0206676
0.0266114
0.0279636
0.0248532
0.0165917
0.00649135
-0.00335597
-0.0109139
-0.0158373
-0.0194721
-0.018316
-0.0146484
-0.00721471
0.00139286
0.00993309
0.0172149
0.0206141
0.0214115
0.0173316
0.0118488
0.00368955
-0.00867001
-0.0214834
-0.0315569
-0.0337866
-0.0316961
-0.0238636
-0.0129102
0.000103975
0.0131486
0.0240052
0.0317797
0.0337532
0.0314238
0.0213643
0.00858713
0.0107018
0.0171197
0.0264646
0.023572
0.0224989
0.0160128
0.0104107
0.00345698
-0.00370039
-0.00958989
-0.0167105
-0.0185727
-0.0224673
-0.0145466
-0.00972986
-0.0065933
-0.0116778
-0.00887597
-0.00354114
0.00134171
0.00319617
0.00324438
0.000812499
-0.00142399
-0.00193562
-0.000347724
0.00387207
0.00848397
0.0111655
0.00607806
0.0762785
0.127574
0.186183
0.185401
0.170967
0.127467
0.0713902
0.00826852
-0.0555706
-0.111854
-0.156847
-0.172767
-0.175375
-0.119993
-0.072904
0.0211281
0.110626
0.189931
0.210231
0.214255
0.16505
0.0967312
0.00475961
-0.0859027
-0.157176
-0.207083
-0.206234
-0.189567
-0.112714
-0.0251677
0.38477
0.529589
0.723574
0.767484
0.635961
0.494848
0.252913
0.0182077
-0.219459
-0.459753
-0.604683
-0.738056
-0.697789
-0.50722
-0.36851
1.1223
1.74044
2.05093
1.94853
1.70851
1.22575
0.658213
0.0210819
-0.608219
-1.18769
-1.66767
-1.92181
-2.02765
-1.73747
-1.15325
-0.307712
3.37581
2.53301
3.09819
2.05143
1.71715
0.77623
0.0352586
-0.716836
-1.64961
-1.99867
-3.04054
-2.50418
-3.35486
0.345464
23.109
19.9655
16.0113
12.9403
9.07874
6.14943
2.96308
0.0664104
-2.80263
-6.01369
-8.89744
-12.8034
-15.7863
-19.7927
-22.8803
25.1313
16.0703
13.1747
8.69792
6.63102
3.84814
2.05007
0.0750624
-1.90934
-3.69494
-6.49064
-8.52863
-13.0074
-15.8721
-25.3007
11.4089
7.10257
6.75833
4.16329
3.73161
2.00594
1.21701
0.0683552
-1.13307
-1.87504
-3.6752
-4.04383
-6.75685
-7.06647
-11.6408
-8.23061
-8.56385
-4.69087
-4.80616
-2.38394
-2.10232
-0.683079
0.125803
0.861788
2.356
2.56708
5.07148
4.89323
8.85203
8.46121
-20.853
-18.12
-12.1224
-10.069
-6.21499
-4.39793
-1.84064
0.155557
2.06304
4.7324
6.4706
10.4833
12.497
18.7852
21.5283
-23.3092
-18.3872
-14.4065
-10.8452
-7.8202
-4.95572
-2.40784
0.187931
2.60387
5.35499
8.0191
11.3324
14.6461
19.1533
23.8918
-2.45991
-0.46032
-2.17549
-1.26478
-1.69236
-0.867782
-0.596072
0.043972
0.619294
0.941544
1.69495
1.31289
2.14592
0.3947
2.32069
-1.90121
-2.19269
-2.65938
-2.16151
-1.99609
-1.25342
-0.68841
0.0562595
0.754235
1.35516
2.056
2.24764
2.69592
2.15111
1.87848
-0.191372
-0.253092
-0.342492
-0.173406
-0.303959
-0.143581
-0.116815
0.0103787
0.121617
0.160326
0.314699
0.194805
0.342457
0.20717
0.165388
-0.173973
-0.358704
-0.420172
-0.329713
-0.355612
-0.232871
-0.138358
0.0116725
0.152693
0.253978
0.375679
0.351108
0.415751
0.314063
0.150012
-0.0415754
-0.113158
-0.0857847
-0.0343666
-0.055587
-0.039087
-0.0299702
0.0020463
0.0314617
0.0458059
0.0678919
0.0480974
0.0801727
0.0817749
0.0235144
-0.0526867
-0.13024
-0.11985
-0.0819705
-0.0810438
-0.0662453
-0.0417051
0.000209805
0.0414049
0.0706383
0.090635
0.0891733
0.106867
0.0971846
0.034687
-0.037596
-0.090041
-0.0759911
-0.0472603
-0.0413951
-0.0395138
-0.0260241
-0.000486495
0.025788
0.0443339
0.0518895
0.0550641
0.0664908
0.0651504
0.0238796
-0.0407883
-0.0945603
-0.0904055
-0.0649957
-0.0532528
-0.047555
-0.0307334
-0.00237053
0.0273639
0.0493107
0.059674
0.0670182
0.0760385
0.068467
0.0273055
-0.0338923
-0.0766273
-0.0733193
-0.0506515
-0.0386032
-0.0346884
-0.0229634
-0.00136257
0.0220339
0.0389733
0.0469776
0.0542588
0.0622382
0.0556911
0.0230644
-0.0310222
-0.0695323
-0.0673194
-0.0448263
-0.0313892
-0.0271889
-0.0191423
-0.00280285
0.0155453
0.0286931
0.036104
0.0440631
0.0530924
0.0478553
0.020364
-0.0241288
-0.0529092
-0.048143
-0.0262808
-0.0135315
-0.0116426
-0.00982798
-0.00189541
0.00818519
0.0149771
0.0194602
0.0265627
0.0362062
0.0345685
0.0151492
-0.0206662
-0.0447345
-0.0369704
-0.0138593
-0.000325174
-0.000217169
-0.00349688
-0.00271481
0.000278801
0.00182673
0.00393923
0.0113627
0.0227794
0.0253396
0.0114646
SCALARS Mach float 1
LOOKUP_TABLE default
30.0646
30.0641
30.0633
30.0622
30.0607
30.0598
30.0588
30.0588
30.059
30.0602
30.0613
30.0629
30.0641
30.0651
30.0656
29.5631
29.5617
29.5592
29.556
29.5528
29.55
29.5482
29.5475
29.5483
29.5502
29.5531
29.5563
29.5596
29.5622
29.5636
30.1227
30.1234
30.1233
30.1239
30.1234
30.1236
30.1229
30.1235
30.1232
30.1242
30.1242
30.125
30.1246
30.1248
30.1242
29.4816
29.4805
29.4785
29.4768
29.4756
29.4748
29.4745
29.4743
29.4746
29.475
29.4758
29.4771
29.4787
29.4807
29.4818
30.1968
30.2032
30.2098
30.2202
30.2257
30.2339
30.2355
30.2393
30.2361
30.235
30.2274
30.2224
30.2124
30.2062
30.2001
29.3695
29.3648
29.3592
29.3571
29.3571
29.3595
29.3605
29.362
29.3607
29.3599
29.3575
29.3577
29.3595
29.3649
29.3693
30.2636
30.2937
30.3218
30.3632
30.3828
30.4133
30.4183
30.432
30.4197
30.4159
30.3868
30.3682
30.3282
30.3014
30.2724
29.2249
29.1984
29.1789
29.1806
29.1862
29.2034
29.2087
29.219
29.2094
29.2051
29.1881
29.1834
29.1806
29.1989
29.2234
30.1466
30.3238
30.4208
30.5844
30.653
30.7604
30.7779
30.8193
30.7809
30.7659
30.6619
30.595
30.4355
30.3434
30.1725
28.8037
28.7428
28.8127
28.9411
29.0291
29.164
29.2137
29.2707
29.217
29.1716
29.037
28.9548
28.824
28.751
28.7941
28.9477
30.07
30.2883
31.0309
31.3364
31.6747
31.7867
31.8708
31.7919
31.6842
31.3548
31.0513
30.315
30.1062
29.0309
24.3643
27.2121
28.2463
29.3334
29.9258
30.623
30.8684
31.0604
30.8778
30.6457
29.9502
29.3757
28.2916
27.3003
24.3223
26.0669
28.033
32.0902
33.2684
34.6161
34.7818
35.375
35.1866
35.3829
34.7976
34.6422
33.3173
32.1481
28.0523
26.1877
48.7628
44.935
45.1256
43.7263
43.8693
42.6811
42.9497
42.2958
42.9482
42.6588
43.8688
43.6644
45.0735
44.9555
49.6943
55.8579
52.0759
49.6914
47.5513
46.7588
45.3718
45.2414
44.6408
45.2536
45.3842
46.7936
47.5477
49.7474
52.4455
56.8572
57.6799
54.4866
51.7448
49.7493
48.7855
47.6185
47.3467
46.8923
47.3717
47.6629
48.8579
49.8302
51.9458
55.0267
58.6779
43.59
44.9865
42.9242
42.9449
42.0347
42.0285
41.4809
41.6228
41.4992
42.0384
42.0782
42.9344
43.0529
45.4579
45.3275
25.8553
32.4544
32.6665
34.7143
34.722
35.9908
35.6886
36.2932
35.6697
35.9562
34.6379
34.5578
32.5103
32.9149
27.525
18.9743
24.8773
27.7111
29.763
30.5069
31.599
31.7019
32.1118
31.6751
31.5633
30.373
29.5988
27.5818
25.4654
20.1539
28.0608
29.6404
31.63
32.243
32.5132
32.8152
32.8604
33.0055
32.8588
32.8059
32.4409
32.1399
31.717
30.4171
29.5682
25.1555
26.6956
28.5095
29.4351
29.7698
30.0882
30.1811
30.3116
30.1759
30.0636
29.6719
29.3206
28.6211
27.4495
26.5141
27.9566
29.1593
30.7002
31.4485
31.6812
31.7717
31.827
31.87
31.8298
31.7511
31.5962
31.366
30.8948
29.9767
29.3376
26.4873
27.6067
29.0296
29.8543
30.126
30.2181
30.2661
30.3055
30.2658
30.1864
30.0308
29.7809
29.2514
28.4155
27.7994
27.7546
28.7942
30.1328
30.9667
31.2558
31.3137
31.3433
31.3621
31.3416
31.2759
31.1597
30.9131
30.3948
29.6232
29.0509
27.0065
27.9775
29.2504
30.1077
30.4342
30.5017
30.5222
30.5357
30.5161
30.4553
30.3351
30.0693
29.5358
28.8026
28.2612
27.639
28.5577
29.7859
30.6596
31.0202
31.0957
31.1079
31.1134
31.0972
31.0414
30.9201
30.6376
30.0961
29.3883
28.8724
27.2959
28.1634
29.3466
30.2292
30.6215
30.712
30.7197
30.7197
30.7038
30.6505
30.5218
30.2226
29.6754
28.9908
28.5002
27.59
28.4162
29.5637
30.453
30.8737
30.9793
30.9841
30.9784
30.9626
30.9109
30.7751
30.4613
29.9101
29.2435
28.7738
27.4893
28.2758
29.3868
30.2766
30.7204
30.8406
30.8435
30.8327
30.8165
30.7661
30.6238
30.2988
29.7473
29.0996
28.6503
27.593
28.3457
29.4241
30.3115
30.7742
30.9084
30.9111
30.8957
30.8786
30.8284
30.6805
30.3471
29.7977
29.1671
28.7356
