# vtk DataFile Version 3.0
Structured Grid Example
ASCII
DATASET STRUCTURED_GRID
DIMENSIONS 15 30 1
POINTS 450 FLOAT
0.0833327 0.0333334 0
0.0833313 0.1 0
0.0833301 0.166667 0
0.083329 0.233333 0
0.0833281 0.3 0
0.0833274 0.366667 0
0.083327 0.433333 0
0.0833268 0.5 0
0.083327 0.566667 0
0.0833274 0.633333 0
0.0833281 0.7 0
0.083329 0.766667 0
0.0833301 0.833333 0
0.0833313 0.9 0
0.0833327 0.966667 0
0.249998 0.0333334 0
0.249993 0.1 0
0.249989 0.166667 0
0.249986 0.233334 0
0.249983 0.3 0
0.24998 0.366667 0
0.249979 0.433333 0
0.249979 0.5 0
0.249979 0.566667 0
0.24998 0.633333 0
0.249983 0.7 0
0.249986 0.766666 0
0.249989 0.833333 0
0.249993 0.9 0
0.249998 0.966667 0
0.416662 0.0333336 0
0.416654 0.100001 0
0.416646 0.166668 0
0.416639 0.233334 0
0.416633 0.300001 0
0.416628 0.366667 0
0.416626 0.433334 0
0.416625 0.5 0
0.416626 0.566666 0
0.416628 0.633333 0
0.416633 0.699999 0
0.416639 0.766666 0
0.416646 0.833332 0
0.416654 0.899999 0
0.416662 0.966666 0
0.583326 0.033334 0
0.58331 0.100002 0
0.583296 0.166669 0
0.583284 0.233336 0
0.583273 0.300003 0
0.583266 0.366669 0
0.583261 0.433335 0
0.583259 0.5 0
0.583261 0.566665 0
0.583266 0.633331 0
0.583273 0.699997 0
0.583284 0.766664 0
0.583296 0.833331 0
0.58331 0.899998 0
0.583326 0.966666 0
0.749987 0.0333351 0
0.749961 0.100005 0
0.749937 0.166674 0
0.749915 0.233342 0
0.749898 0.300008 0
0.749884 0.366673 0
0.749876 0.433337 0
0.749874 0.5 0
0.749876 0.566663 0
0.749884 0.633327 0
0.749898 0.699992 0
0.749915 0.766658 0
0.749937 0.833326 0
0.749961 0.899995 0
0.749987 0.966665 0
0.916644 0.033338 0
0.916601 0.100013 0
0.91656 0.166686 0
0.916524 0.233356 0
0.916494 0.300021 0
0.916472 0.366683 0
0.916458 0.433342 0
0.916454 0.5 0
0.916458 0.566658 0
0.916472 0.633317 0
0.916494 0.699979 0
0.916524 0.766644 0
0.91656 0.833314 0
0.916601 0.899987 0
0.916644 0.966662 0
1.0833 0.0333461 0
1.08322 0.100036 0
1.08315 0.166719 0
1.08309 0.233394 0
1.08304 0.300058 0
1.08301 0.366712 0
1.08298 0.433358 0
1.08298 0.5 0
1.08298 0.566642 0
1.08301 0.633288 0
1.08304 0.699942 0
1.08309 0.766606 0
1.08315 0.833281 0
1.08322 0.899964 0
1.0833 0.966654 0
1.24994 0.0333682 0
1.24981 0.100098 0
1.2497 0.16681 0
1.24959 0.233497 0
1.24951 0.300156 0
1.24945 0.366788 0
1.24942 0.433399 0
1.2494 0.5 0
1.24942 0.566601 0
1.24945 0.633212 0
1.24951 0.699844 0
1.24959 0.766503 0
1.2497 0.83319 0
1.24981 0.899902 0
1.24994 0.966632 0
1.41656 0.0334298 0
1.41634 0.10027 0
1.41615 0.16706 0
1.41598 0.233778 0
1.41585 0.300419 0
1.41575 0.36699 0
1.41569 0.433509 0
1.41567 0.5 0
1.41569 0.566491 0
1.41575 0.63301 0
1.41585 0.699581 0
1.41598 0.766222 0
1.41615 0.83294 0
1.41634 0.89973 0
1.41656 0.96657 0
1.58313 0.0336075 0
1.58275 0.10076 0
1.58242 0.167751 0
1.58215 0.234537 0
1.58195 0.301115 0
1.58181 0.367517 0
1.58173 0.433791 0
1.58171 0.5 0
1.58173 0.566209 0
1.58181 0.632483 0
1.58195 0.698885 0
1.58215 0.765463 0
1.58242 0.832249 0
1.58275 0.89924 0
1.58313 0.966392 0
1.74959 0.0341677 0
1.74885 0.102235 0
1.74829 0.169714 0
1.74791 0.236575 0
1.74766 0.302905 0
1.74751 0.368829 0
1.74744 0.434482 0
1.74741 0.5 0
1.74744 0.565518 0
1.74751 0.631171 0
1.74766 0.697095 0
1.74791 0.763425 0
1.74829 0.830286 0
1.74885 0.897765 0
1.74959 0.965832 0
1.91555 0.0363295 0
1.91388 0.107253 0
1.91312 0.175401 0
1.91283 0.241837 0
1.91276 0.307169 0
1.91277 0.371793 0
1.9128 0.435995 0
1.91281 0.5 0
1.9128 0.564005 0
1.91277 0.628207 0
1.91276 0.692831 0
1.91283 0.758163 0
1.91312 0.824599 0
1.91388 0.892747 0
1.91555 0.963671 0
2.07838 0.0591504 0
2.07417 0.125973 0
2.07554 0.190391 0
2.07663 0.253364 0
2.07743 0.315525 0
2.07798 0.377223 0
2.07829 0.438667 0
2.0784 0.5 0
2.07829 0.561333 0
2.07798 0.622777 0
2.07743 0.684475 0
2.07663 0.746636 0
2.07554 0.809609 0
2.07417 0.874027 0
2.07838 0.94085 0
2.24384 0.096456 0
2.23911 0.153168 0
2.24152 0.210396 0
2.24318 0.267878 0
2.24431 0.325632 0
2.24503 0.383617 0
2.24544 0.441767 0
2.24557 0.5 0
2.24544 0.558233 0
2.24503 0.616383 0
2.24431 0.674368 0
2.24318 0.732122 0
2.24152 0.789604 0
2.23911 0.846832 0
2.24384 0.903544 0
2.41462 0.118677 0
2.41292 0.170231 0
2.41356 0.223198 0
2.41406 0.277268 0
2.41444 0.332207 0
2.4147 0.387788 0
2.41485 0.44379 0
2.4149 0.5 0
2.41485 0.55621 0
2.4147 0.612212 0
2.41444 0.667793 0
2.41406 0.722732 0
2.41356 0.776802 0
2.41292 0.829769 0
2.41462 0.881323 0
2.58538 0.118677 0
2.58708 0.170231 0
2.58644 0.223198 0
2.58594 0.277268 0
2.58556 0.332207 0
2.5853 0.387788 0
2.58515 0.44379 0
2.5851 0.5 0
2.58515 0.55621 0
2.5853 0.612212 0
2.58556 0.667793 0
2.58594 0.722732 0
2.58644 0.776802 0
2.58708 0.829769 0
2.58538 0.881323 0
2.75616 0.096456 0
2.76089 0.153168 0
2.75848 0.210396 0
2.75682 0.267878 0
2.75569 0.325632 0
2.75497 0.383617 0
2.75456 0.441767 0
2.75443 0.5 0
2.75456 0.558233 0
2.75497 0.616383 0
2.75569 0.674368 0
2.75682 0.732122 0
2.75848 0.789604 0
2.76089 0.846832 0
2.75616 0.903544 0
2.92162 0.0591504 0
2.92583 0.125973 0
2.92446 0.190391 0
2.92337 0.253364 0
2.92257 0.315525 0
2.92202 0.377223 0
2.92171 0.438667 0
2.9216 0.5 0
2.92171 0.561333 0
2.92202 0.622777 0
2.92257 0.684475 0
2.92337 0.746636 0
2.92446 0.809609 0
2.92583 0.874027 0
2.92162 0.94085 0
3.08445 0.0363295 0
3.08612 0.107253 0
3.08688 0.175401 0
3.08717 0.241837 0
3.08724 0.307169 0
3.08723 0.371793 0
3.0872 0.435995 0
3.08719 0.5 0
3.0872 0.564005 0
3.08723 0.628207 0
3.08724 0.692831 0
3.08717 0.758163 0
3.08688 0.824599 0
3.08612 0.892747 0
3.08445 0.963671 0
3.25041 0.0341677 0
3.25115 0.102235 0
3.25171 0.169714 0
3.25209 0.236575 0
3.25234 0.302905 0
3.25249 0.368829 0
3.25256 0.434482 0
3.25259 0.5 0
3.25256 0.565518 0
3.25249 0.631171 0
3.25234 0.697095 0
3.25209 0.763425 0
3.25171 0.830286 0
3.25115 0.897765 0
3.25041 0.965832 0
3.41687 0.0336075 0
3.41725 0.10076 0
3.41758 0.167751 0
3.41785 0.234537 0
3.41805 0.301115 0
3.41819 0.367517 0
3.41827 0.433791 0
3.41829 0.5 0
3.41827 0.566209 0
3.41819 0.632483 0
3.41805 0.698885 0
3.41785 0.765463 0
3.41758 0.832249 0
3.41725 0.89924 0
3.41687 0.966392 0
3.58344 0.0334298 0
3.58366 0.10027 0
3.58385 0.16706 0
3.58402 0.233778 0
3.58415 0.300419 0
3.58425 0.36699 0
3.58431 0.433509 0
3.58433 0.5 0
3.58431 0.566491 0
3.58425 0.63301 0
3.58415 0.699581 0
3.58402 0.766222 0
3.58385 0.83294 0
3.58366 0.89973 0
3.58344 0.96657 0
3.75006 0.0333682 0
3.75019 0.100098 0
3.7503 0.16681 0
3.75041 0.233497 0
3.75049 0.300156 0
3.75055 0.366788 0
3.75058 0.433399 0
3.7506 0.5 0
3.75058 0.566601 0
3.75055 0.633212 0
3.75049 0.699844 0
3.75041 0.766503 0
3.7503 0.83319 0
3.75019 0.899902 0
3.75006 0.966632 0
3.9167 0.0333461 0
3.91678 0.100036 0
3.91685 0.166719 0
3.91691 0.233394 0
3.91696 0.300058 0
3.91699 0.366712 0
3.91702 0.433358 0
3.91702 0.5 0
3.91702 0.566642 0
3.91699 0.633288 0
3.91696 0.699942 0
3.91691 0.766606 0
3.91685 0.833281 0
3.91678 0.899964 0
3.9167 0.966654 0
4.08336 0.033338 0
4.0834 0.100013 0
4.08344 0.166686 0
4.08348 0.233356 0
4.08351 0.300021 0
4.08353 0.366683 0
4.08354 0.433342 0
4.08355 0.5 0
4.08354 0.566658 0
4.08353 0.633317 0
4.08351 0.699979 0
4.08348 0.766644 0
4.08344 0.833314 0
4.0834 0.899987 0
4.08336 0.966662 0
4.25001 0.0333351 0
4.25004 0.100005 0
4.25006 0.166674 0
4.25008 0.233342 0
4.2501 0.300008 0
4.25012 0.366673 0
4.25012 0.433337 0
4.25013 0.5 0
4.25012 0.566663 0
4.25012 0.633327 0
4.2501 0.699992 0
4.25008 0.766658 0
4.25006 0.833326 0
4.25004 0.899995 0
4.25001 0.966665 0
4.41667 0.033334 0
4.41669 0.100002 0
4.4167 0.166669 0
4.41672 0.233336 0
4.41673 0.300003 0
4.41673 0.366669 0
4.41674 0.433335 0
4.41674 0.5 0
4.41674 0.566665 0
4.41673 0.633331 0
4.41673 0.699997 0
4.41672 0.766664 0
4.4167 0.833331 0
4.41669 0.899998 0
4.41667 0.966666 0
4.58334 0.0333336 0
4.58335 0.100001 0
4.58335 0.166668 0
4.58336 0.233334 0
4.58337 0.300001 0
4.58337 0.366667 0
4.58337 0.433334 0
4.58338 0.5 0
4.58337 0.566666 0
4.58337 0.633333 0
4.58337 0.699999 0
4.58336 0.766666 0
4.58335 0.833332 0
4.58335 0.899999 0
4.58334 0.966666 0
4.75 0.0333334 0
4.75001 0.1 0
4.75001 0.166667 0
4.75001 0.233334 0
4.75002 0.3 0
4.75002 0.366667 0
4.75002 0.433333 0
4.75002 0.5 0
4.75002 0.566667 0
4.75002 0.633333 0
4.75002 0.7 0
4.75001 0.766666 0
4.75001 0.833333 0
4.75001 0.9 0
4.75 0.966667 0
4.91667 0.0333334 0
4.91667 0.1 0
4.91667 0.166667 0
4.91667 0.233333 0
4.91667 0.3 0
4.91667 0.366667 0
4.91667 0.433333 0
4.91667 0.5 0
4.91667 0.566667 0
4.91667 0.633333 0
4.91667 0.7 0
4.91667 0.766667 0
4.91667 0.833333 0
4.91667 0.9 0
4.91667 0.966667 0
POINT_DATA 450
SCALARS pressure float 1
LOOKUP_TABLE default
94472.5
94472.6
94472.7
94472.8
94472.9
94473.1
94473.1
94473.2
94473.1
94473
94472.9
94472.8
94472.6
94472.5
94472.5
94206.7
94206.5
94206.5
94206.2
94206.1
94205.8
94205.8
94205.7
94205.8
94205.8
94206
94206.1
94206.4
94206.4
94206.5
94536.5
94536.3
94535.8
94535.2
94534.6
94534
94533.7
94533.5
94533.6
94534
94534.6
94535.2
94535.8
94536.2
94536.5
94139.2
94138.6
94138
94136.6
94135.9
94134.4
94134.3
94133.5
94134.3
94134.3
94135.8
94136.4
94137.8
94138.3
94139
94616
94615.4
94614.5
94613
94611.8
94610.5
94609.9
94609.4
94609.8
94610.4
94611.8
94613
94614.4
94615.3
94615.9
94053.5
94051.8
94051.3
94047.4
94047.1
94042.9
94043.9
94041
94043.7
94042.7
94046.7
94046.9
94050.7
94051.2
94052.9
94720
94718.5
94717.3
94713.9
94712.4
94709
94708.7
94706.9
94708.7
94708.8
94712.2
94713.6
94717
94718.2
94719.7
93951
93943.1
93942.7
93928
93928.8
93914.2
93918.8
93908.6
93918.4
93913.5
93927.6
93926.6
93941.1
93941.4
93949.1
94880
94868.4
94863.4
94845.7
94840.7
94825.6
94825.9
94817.5
94825.7
94824.9
94840.2
94844.7
94862.5
94867.1
94878.9
93905.7
93840.1
93834.6
93754.7
93750.9
93690.3
93700.7
93666.5
93699.6
93688.4
93747.8
93751.1
93829.9
93835
93900.3
95279.5
95138.4
95100.6
94990.6
94959
94888.8
94884.7
94852.9
94884.3
94886.7
94957.8
94986.6
95098.8
95133.5
95276.9
94571.6
93811.3
93769.7
93352.6
93302.4
93104.1
93097.7
93026.2
93095.3
93100.6
93295.1
93344.6
93756.9
93797
94553.1
96100
95458.8
95050.2
94755.9
94614.7
94481.6
94444.3
94404.4
94443.7
94475.9
94613.5
94742.7
95049.9
95434
96100.8
89134.2
90212.1
89827.8
90519
90314.8
90747.3
90554.6
90828.4
90554.3
90752
90314
90531.2
89826.7
90238.7
89126.1
90209.5
91519.1
91409.8
92232
92070.6
92592.3
92363.5
92702.5
92360.1
92595.3
92059.9
92239.2
91390.8
91532.6
90173.8
87372
88849.5
88627.8
89612.5
89372.4
90029.5
89716.7
90161
89709.8
90026
89350.5
89602.4
88587.5
88824.5
87297.5
91767.2
92527.2
92295.6
92847.9
92625.5
93036
92779.6
93097.6
92774
93039.2
92607
92853.4
92259.3
92530.6
91703.6
93243.2
92724.9
92593.2
92411.5
92287.1
92287.9
92169
92259.6
92166.2
92304.7
92278.4
92449.5
92575.5
92796.9
93237.9
96864.3
95832.5
95650.9
95164.2
95022.2
94820.7
94753.2
94718.4
94759.8
94833.4
95044.2
95190
95694.5
95870.8
96964.1
93015.9
93089.9
93063.9
93092.1
93060.3
93081.6
93048.4
93076.7
93047.3
93083.1
93057
93093.3
93057.6
93087.5
93007.2
95124.8
95042.5
95001.6
94907.1
94869.6
94808.8
94795.1
94775.4
94797.5
94813.2
94876.6
94914.9
95012
95052.4
95137.7
93520.4
93523.8
93521.5
93523.8
93519.5
93522.3
93517.2
93521.6
93517
93522.4
93519
93523.7
93520.7
93523.5
93520
94621
94613.9
94606.8
94592.8
94585.6
94573.9
94571.8
94567
94572.3
94575
94587.1
94594.5
94608.7
94615.7
94622.8
93781.5
93781.9
93782.1
93782.5
93782.5
93782.9
93782.8
93783.1
93782.8
93783
93782.7
93782.7
93782.4
93782.4
93782.1
94406.3
94405.8
94405.1
94403.7
94403.3
94402
94402.2
94401.3
94402.3
94402.1
94403.5
94403.9
94405.2
94405.8
94406.3
93921.3
93921.8
93922.7
93923.7
93924.8
93925.7
93926.4
93926.5
93926.5
93925.8
93925
93924
93923.1
93922.3
93921.8
94301.7
94302
94302.4
94303
94303.9
94304.4
94305
94304.9
94304.9
94304.3
94303.8
94302.9
94302.3
94301.7
94301.4
93993.1
93993.6
93994.3
93995.2
93996.2
93996.9
93997.6
93997.7
93997.6
93997.1
93996.4
93995.5
93994.6
93994
93993.6
94254.6
94254.8
94255.2
94255.6
94256.1
94256.4
94256.7
94256.8
94256.7
94256.4
94256
94255.5
94255
94254.7
94254.5
94024.3
94024.6
94025
94025.4
94025.8
94026
94026.2
94026.3
94026.3
94026.2
94026
94025.8
94025.5
94025.2
94025
SCALARS density float 1
LOOKUP_TABLE default
1.21458
1.21458
1.21459
1.21459
1.21459
1.21459
1.21459
1.21459
1.21459
1.21459
1.21459
1.21459
1.21459
1.21459
1.21458
1.21213
1.21213
1.21213
1.21213
1.21213
1.21212
1.21212
1.21212
1.21212
1.21212
1.21213
1.21213
1.21213
1.21213
1.21213
1.21516
1.21515
1.21515
1.21515
1.21514
1.21514
1.21513
1.21513
1.21513
1.21514
1.21514
1.21515
1.21515
1.21516
1.21516
1.21151
1.2115
1.2115
1.21149
1.21148
1.21147
1.21147
1.21146
1.21147
1.21147
1.21148
1.21149
1.2115
1.2115
1.21151
1.21589
1.21588
1.21587
1.21586
1.21585
1.21584
1.21583
1.21583
1.21583
1.21584
1.21585
1.21586
1.21587
1.21588
1.21589
1.21074
1.21072
1.21072
1.21068
1.21068
1.21065
1.21066
1.21063
1.21066
1.21064
1.21068
1.21068
1.21071
1.21072
1.21073
1.21683
1.21681
1.2168
1.21677
1.21676
1.21673
1.21673
1.21671
1.21673
1.21673
1.21676
1.21677
1.2168
1.21681
1.21683
1.20985
1.20978
1.20978
1.20965
1.20965
1.20952
1.20957
1.20948
1.20957
1.20952
1.20965
1.20963
1.20977
1.20977
1.20983
1.21817
1.21807
1.21804
1.21789
1.21785
1.21772
1.21772
1.21764
1.21772
1.21771
1.21785
1.21788
1.21803
1.21806
1.21816
1.20979
1.20919
1.20909
1.20832
1.20826
1.2077
1.20779
1.20747
1.20778
1.20768
1.20824
1.20829
1.20905
1.20914
1.20974
1.22086
1.21978
1.21962
1.21877
1.21856
1.21797
1.21796
1.21767
1.21795
1.21795
1.21856
1.21874
1.21961
1.21974
1.22085
1.21868
1.21072
1.20982
1.20555
1.20487
1.20286
1.20274
1.20203
1.20272
1.20282
1.2048
1.20546
1.2097
1.21058
1.2185
1.22567
1.22088
1.21786
1.21579
1.21476
1.21374
1.21347
1.21316
1.21347
1.21369
1.21476
1.21569
1.21787
1.22062
1.22566
1.16442
1.17506
1.17118
1.17779
1.17588
1.18001
1.1782
1.18079
1.1782
1.18005
1.17588
1.1779
1.17115
1.17544
1.16499
1.17547
1.18818
1.18667
1.19424
1.19259
1.19743
1.19525
1.19841
1.19522
1.19747
1.19249
1.1943
1.1865
1.18853
1.17567
1.14719
1.16161
1.15949
1.16875
1.16651
1.17271
1.16983
1.17398
1.16977
1.17268
1.1663
1.16863
1.15914
1.16162
1.14701
1.18884
1.19645
1.19459
1.19968
1.19772
1.20148
1.19919
1.20206
1.19914
1.20151
1.19755
1.19971
1.19428
1.19674
1.18919
1.20183
1.19786
1.19695
1.19507
1.19392
1.19386
1.19284
1.19362
1.19282
1.19402
1.19384
1.19538
1.19681
1.19896
1.20311
1.23293
1.22539
1.22462
1.22043
1.2192
1.21743
1.21688
1.21656
1.21694
1.21754
1.21937
1.22059
1.22505
1.22623
1.23508
1.19886
1.20038
1.20088
1.20137
1.2011
1.20131
1.20105
1.20132
1.20105
1.20132
1.20103
1.2013
1.2009
1.20089
1.19987
1.21832
1.21828
1.21864
1.21807
1.21777
1.21724
1.21715
1.21699
1.21718
1.21727
1.21778
1.21807
1.21884
1.21894
1.2195
1.20375
1.20437
1.20503
1.20537
1.20539
1.20542
1.2054
1.20546
1.2054
1.20541
1.20532
1.20531
1.20516
1.20495
1.20474
1.21389
1.21438
1.21497
1.21519
1.2152
1.2151
1.2151
1.21507
1.21511
1.21509
1.21515
1.21515
1.21515
1.21499
1.21489
1.20625
1.20675
1.20737
1.20775
1.20785
1.20786
1.20787
1.20788
1.20787
1.20783
1.20778
1.20771
1.20756
1.20736
1.2072
1.212
1.21246
1.21305
1.21342
1.21354
1.21353
1.21354
1.21354
1.21354
1.2135
1.21347
1.21339
1.21326
1.21307
1.21292
1.20763
1.20807
1.20865
1.20905
1.2092
1.20922
1.20923
1.20923
1.20922
1.20918
1.20913
1.20903
1.20887
1.20868
1.20853
1.21103
1.21145
1.212
1.2124
1.21256
1.21258
1.21258
1.21258
1.21257
1.21253
1.21248
1.21238
1.21223
1.21204
1.21191
1.2085
1.2089
1.20944
1.20985
1.21003
1.21007
1.21007
1.21006
1.21005
1.21002
1.20996
1.20985
1.20969
1.2095
1.20937
1.21026
1.21063
1.21115
1.21154
1.21173
1.21176
1.21176
1.21175
1.21174
1.21171
1.21165
1.21155
1.2114
1.21123
1.21111
1.20965
1.21
1.2105
1.2109
1.2111
1.21114
1.21114
1.21113
1.21111
1.21108
1.21103
1.21093
1.21077
1.2106
1.21049
SCALARS u-velocity float 1
LOOKUP_TABLE default
99.5981
99.5986
99.5991
99.5999
99.6001
99.6008
99.6007
99.6013
99.601
99.6014
99.601
99.601
99.6003
99.6
99.5996
98.7389
98.7386
98.738
98.7374
98.737
98.7366
98.7365
98.7365
98.7366
98.7369
98.7374
98.7379
98.7386
98.7392
98.7396
99.6985
99.7007
99.7031
99.7071
99.7092
99.7125
99.7131
99.7148
99.7135
99.7134
99.7105
99.7088
99.7051
99.703
99.7009
98.6075
98.6056
98.6031
98.6009
98.5997
98.5991
98.5989
98.599
98.5991
98.5994
98.6
98.6013
98.6034
98.6059
98.6078
99.8386
99.8479
99.8578
99.8732
99.8806
99.8925
99.894
99.9001
99.895
99.8945
99.8834
99.8768
99.8622
99.853
99.8441
98.426
98.4158
98.4033
98.395
98.3905
98.3903
98.3894
98.3909
98.3897
98.3909
98.3912
98.3959
98.4037
98.4159
98.4257
99.9671
100.014
100.056
100.118
100.144
100.189
100.194
100.215
100.196
100.193
100.151
100.126
100.067
100.027
99.9816
98.1781
98.1304
98.0929
98.0886
98.0921
98.1143
98.1202
98.1353
98.1214
98.1172
98.0953
98.0933
98.0958
98.1312
98.1756
99.7859
100.076
100.231
100.494
100.601
100.772
100.798
100.863
100.802
100.78
100.616
100.511
100.255
100.108
99.8287
97.4478
97.3383
97.4539
97.6628
97.8098
98.0309
98.115
98.2078
98.1205
98.0438
97.8231
97.6861
97.4729
97.3521
97.4312
97.8122
99.6669
100.015
101.225
101.723
102.271
102.456
102.591
102.465
102.287
101.753
101.259
100.06
99.7266
97.9519
89.6086
94.6065
96.4247
98.2278
99.2458
100.392
100.808
101.12
100.823
100.431
99.2869
98.3003
96.5021
94.7597
89.5299
90.0041
94.2078
101.738
104.029
106.533
106.985
108.028
107.777
108.045
107.017
106.588
104.122
101.867
94.277
90.2847
123.814
120.301
120.884
119.447
119.759
118.284
118.684
117.82
118.685
118.258
119.766
119.375
120.832
120.354
124.986
134.83
130.578
127.566
124.975
123.931
122.167
121.981
121.206
121.998
122.185
123.978
124.975
127.636
131.039
136
137
133.26
130.023
127.58
126.379
124.925
124.55
123.996
124.582
124.978
126.467
127.673
130.263
133.893
138.146
117.888
120.316
118.2
118.468
117.437
117.545
116.817
117.06
116.838
117.546
117.483
118.418
118.336
120.852
120.137
89.3297
101.721
102.68
106.318
106.58
108.686
108.301
109.249
108.267
108.616
106.435
106.029
102.393
102.32
92.1823
79.2904
90.7286
95.7007
99.1548
100.366
102.139
102.3
102.958
102.257
102.082
100.148
98.8838
95.4802
91.7883
81.7097
96.1373
98.7927
102.03
103.027
103.462
103.958
104.033
104.267
104.03
103.942
103.346
102.862
102.167
100.069
98.6642
91.1787
93.9134
97.0389
98.5967
99.1588
99.6898
99.846
100.061
99.8375
99.6494
98.9972
98.4066
97.2273
95.2198
93.5894
95.9974
98.034
100.584
101.807
102.192
102.348
102.442
102.514
102.447
102.315
102.056
101.675
100.9
99.3866
98.3198
93.5182
95.4678
97.892
99.2754
99.7343
99.8956
99.9807
100.047
99.9801
99.8437
99.5781
99.1542
98.262
96.8443
95.7877
95.6719
97.441
99.6747
101.046
101.523
101.625
101.677
101.71
101.674
101.564
101.368
100.959
100.103
98.8215
97.8618
94.4258
96.1005
98.2545
99.6805
100.222
100.337
100.373
100.396
100.363
100.261
100.06
99.6174
98.7284
97.495
96.5759
95.4976
97.0622
99.1163
100.551
101.138
101.261
101.28
101.29
101.263
101.173
100.976
100.515
99.6265
98.4512
97.5869
94.9423
96.4285
98.4192
99.8756
100.514
100.658
100.668
100.668
100.642
100.558
100.352
99.8648
98.9641
97.8223
96.9962
95.4308
96.8379
98.758
100.217
100.897
101.063
101.067
101.056
101.032
100.952
100.737
100.231
99.3296
98.2251
97.4387
95.29
96.6331
98.4973
99.9623
100.682
100.871
100.872
100.853
100.829
100.751
100.525
99.9986
99.0944
98.0184
97.2641
95.4186
96.7026
98.5113
99.9732
100.725
100.94
100.942
100.916
100.889
100.81
100.573
100.032
99.1292
98.0816
97.3572
SCALARS v-velocity float 1
LOOKUP_TABLE default
-0.000555236
-0.00122892
-0.00192481
-0.0020364
-0.00200317
-0.00153405
-0.000952637
-0.000210123
0.000542097
0.00114724
0.00165758
0.00174625
0.00170398
0.00109125
0.000507449
7.5431e-05
-0.000299327
-0.00022174
-0.000566208
-0.00038356
-0.000359281
4.96012e-05
0.000422471
0.000775975
0.00113535
0.00107549
0.0011452
0.000661201
0.000572706
1.94838e-05
-0.00134858
-0.00319464
-0.00478223
-0.0049897
-0.00471294
-0.00348757
-0.00196003
-0.00010572
0.00175775
0.00328432
0.00452276
0.00481402
0.00463317
0.00309714
0.00130937
0.00295935
0.00533621
0.00880574
0.00847049
0.00853443
0.0062755
0.00418065
0.00129298
-0.00165891
-0.00389142
-0.0063995
-0.00666436
-0.00741317
-0.00446183
-0.00264868
-0.00236803
-0.00550157
-0.00694612
-0.00619215
-0.00489752
-0.00317161
-0.0015397
8.10911e-06
0.00158846
0.00313811
0.00482355
0.00603081
0.00671469
0.00532444
0.00226294
0.0155333
0.0290854
0.0453981
0.0443847
0.0430959
0.0316544
0.0191373
0.00337276
-0.0125943
-0.0253849
-0.0374461
-0.0394967
-0.041487
-0.0265623
-0.0145808
-0.00467778
-0.00737646
-0.00125286
0.00418686
0.00961628
0.00906256
0.00672773
0.000751822
-0.00502968
-0.00791249
-0.0087235
-0.00393603
0.00079788
0.00682821
0.00414829
0.0750749
0.123759
0.181661
0.179211
0.165998
0.122914
0.0692381
0.00823736
-0.053482
-0.107355
-0.151928
-0.166614
-0.170883
-0.116192
-0.0717073
0.0168593
0.0990627
0.173588
0.190716
0.19645
0.150526
0.0891338
0.00476571
-0.0782982
-0.142639
-0.189271
-0.186708
-0.173218
-0.101146
-0.0208983
0.378546
0.513121
0.699568
0.739476
0.609837
0.473963
0.241798
0.018247
-0.208268
-0.438793
-0.578492
-0.709986
-0.673738
-0.490719
-0.362277
1.11551
1.72274
2.02484
1.91854
1.68035
1.2035
0.64631
0.0211657
-0.596158
-1.16529
-1.63938
-1.8917
-2.00147
-1.71972
-1.14644
-0.313926
3.35943
2.50927
3.07143
2.02636
1.69769
0.765778
0.0353599
-0.706189
-1.62997
-1.97343
-3.01364
-2.48034
-3.33842
0.351705
23.102
19.9521
15.9941
12.9218
9.06197
6.13661
2.95629
0.0665195
-2.79563
-6.00068
-8.8805
-12.7848
-15.769
-19.7793
-22.8732
25.1272
16.0645
13.1669
8.69021
6.62371
3.84285
2.0472
0.0752037
-1.9062
-3.6894
-6.48312
-8.52075
-12.9994
-15.8662
-25.2966
11.4077
7.09954
6.75381
4.15849
3.72688
2.00248
1.21511
0.068512
-1.13088
-1.8713
-3.67022
-4.03884
-6.75217
-7.06337
-11.6395
-8.23319
-8.56916
-4.69818
-4.81397
-2.39134
-2.10785
-0.686046
0.125992
0.865109
2.36187
2.57478
5.07954
4.90074
8.85744
8.46385
-20.8604
-18.1321
-12.1385
-10.0857
-6.23057
-4.40946
-1.84689
0.155768
2.06968
4.74432
6.48652
10.5002
12.5134
18.7975
21.5357
-23.321
-18.4089
-14.4362
-10.877
-7.84958
-4.97806
-2.4198
0.188161
2.61622
5.37775
8.0488
11.3644
14.676
19.1751
23.9037
-2.47005
-0.486538
-2.21461
-1.30826
-1.73378
-0.89953
-0.613358
0.0441786
0.636947
0.973664
1.73667
1.35662
2.18525
0.421083
2.33093
-1.91011
-2.21611
-2.69571
-2.20232
-2.03592
-1.28402
-0.705311
0.0564426
0.771463
1.3861
2.09612
2.2887
2.73251
2.17476
1.88751
-0.197729
-0.268747
-0.367717
-0.201007
-0.331611
-0.164393
-0.128531
0.010552
0.133656
0.181457
0.342629
0.222654
0.367929
0.223024
0.171849
-0.175643
-0.361964
-0.427145
-0.336099
-0.363344
-0.23785
-0.141581
0.0118276
0.156209
0.259239
0.38366
0.357715
0.422928
0.317465
0.15175
-0.0375252
-0.101356
-0.0700617
-0.0146015
-0.0383147
-0.0243589
-0.0224851
0.00218688
0.0242442
0.0313268
0.0508344
0.0285034
0.0645777
0.0700234
0.0194837
-0.0434088
-0.104974
-0.0835044
-0.0387717
-0.0411252
-0.0338621
-0.0245425
0.000334216
0.0244804
0.0384667
0.0508935
0.0460929
0.0705713
0.0718853
0.0253863
-0.0246869
-0.0556966
-0.0253737
0.0118304
0.0141769
0.00487501
-0.00218568
-0.000386031
0.00214238
0.000108463
-0.00355223
-0.00396416
0.0158543
0.0307133
0.0109196
-0.0267295
-0.0577822
-0.0353954
-0.00149949
0.00707645
0.000185434
-0.0048924
-0.00229561
0.00166797
0.00168874
-0.000563801
0.00354905
0.0209772
0.0315792
0.0131893
-0.0210199
-0.0434237
-0.0230864
0.00677965
0.0164002
0.00850913
0.000567501
-0.00131413
-0.00140172
-0.00414864
-0.00796827
-0.00316307
0.0119567
0.0224024
0.0101478
-0.0215739
-0.0454779
-0.0305284
-0.00317761
0.00880803
0.00413224
-0.00198245
-0.00280475
-0.00161498
-0.00263562
-0.0041011
0.00238992
0.0162562
0.0237502
0.0108899
-0.0182849
-0.0381969
-0.0254135
-0.000851642
0.0112128
0.00746235
0.000709162
-0.00192181
-0.00239965
-0.00417503
-0.0053222
0.0011033
0.0134564
0.0198507
0.00930185
-0.0188168
-0.040161
-0.02982
-0.00603091
0.00738122
0.0056459
-0.000231099
-0.00273907
-0.00303234
-0.00407969
-0.00380372
0.00351427
0.0156309
0.0207902
0.00962547
SCALARS Mach float 1
LOOKUP_TABLE default
30.0607
30.061
30.0613
30.0618
30.0619
30.0624
30.0623
30.0626
30.0625
30.0627
30.0625
30.0625
30.0621
30.0619
30.0616
29.556
29.5558
29.5555
29.5552
29.5549
29.5547
29.5547
29.5547
29.5548
29.5549
29.5552
29.5555
29.5559
29.5562
29.5564
30.1182
30.1196
30.1211
30.1235
30.1248
30.1269
30.1272
30.1283
30.1275
30.1274
30.1257
30.1246
30.1223
30.121
30.1197
29.4804
29.4794
29.4779
29.4767
29.476
29.4757
29.4756
29.4757
29.4757
29.4759
29.4762
29.4769
29.4781
29.4796
29.4806
30.1993
30.205
30.211
30.2204
30.2249
30.2323
30.2332
30.2369
30.2338
30.2334
30.2267
30.2226
30.2137
30.2081
30.2026
29.376
29.37
29.3626
29.3579
29.3552
29.3553
29.3547
29.3558
29.3549
29.3557
29.3557
29.3584
29.3629
29.3701
29.3758
30.2722
30.3007
30.3261
30.3639
30.38
30.4072
30.4101
30.423
30.4114
30.4098
30.384
30.3689
30.3326
30.3084
30.281
29.2335
29.2055
29.1833
29.1814
29.1834
29.1973
29.2006
29.2101
29.2014
29.1991
29.1854
29.1842
29.1851
29.2061
29.2321
30.1537
30.3298
30.4245
30.5852
30.6508
30.7555
30.7713
30.8119
30.7743
30.761
30.6598
30.5958
30.4393
30.3495
30.1796
28.8068
28.7454
28.814
28.941
29.0276
29.1611
29.2101
29.2667
29.2134
29.1688
29.0355
28.9548
28.8254
28.7537
28.7973
28.9475
30.0698
30.2878
31.0306
31.3362
31.6747
31.7869
31.871
31.7921
31.6842
31.3547
31.051
30.3146
30.1061
29.0307
24.3615
27.2094
28.2447
29.3331
29.9271
30.6256
30.8721
31.0644
30.8815
30.6485
29.9515
29.3755
28.29
27.2977
24.3195
26.0612
28.0281
32.0867
33.2674
34.6176
34.7856
35.3805
35.1926
35.3884
34.8015
34.6438
33.3163
32.1446
28.0474
26.182
48.7566
44.931
45.1233
43.7264
43.8712
42.6847
42.9543
42.3008
42.9528
42.6624
43.8708
43.6645
45.0713
44.9515
49.6881
55.8583
52.0763
49.6921
47.5521
46.7597
45.3727
45.2424
44.6417
45.2545
45.3851
46.7946
47.5486
49.7482
52.446
56.8576
57.6861
54.4914
51.7477
49.7506
48.7849
47.6167
47.3439
46.8892
47.369
47.6611
48.8574
49.8315
51.9488
55.0316
58.6842
43.5996
44.9937
42.9283
42.9455
42.0321
42.0231
41.4738
41.615
41.4921
42.033
42.0757
42.9351
43.0571
45.4652
45.3374
25.8628
32.461
32.6705
34.7142
34.7183
35.9833
35.6792
36.2825
35.6603
35.9488
34.6342
34.5578
32.5143
32.9215
27.5328
18.9752
24.8781
27.7112
29.7618
30.5046
31.5954
31.6977
32.1072
31.6709
31.5597
30.3707
29.5976
27.5819
25.4661
20.1547
28.0541
29.6355
31.6265
32.2418
32.5141
32.8179
32.8643
33.0098
32.8627
32.8086
32.4418
32.1387
31.7134
30.412
29.5612
25.1454
26.6876
28.5041
29.434
29.773
30.0955
30.191
30.3225
30.1858
30.0708
29.6751
29.3194
28.6156
27.4412
26.5037
27.9429
29.1484
30.6936
31.4483
31.6874
31.7838
31.843
31.8874
31.8458
31.7632
31.6023
31.3657
30.888
29.9654
29.3234
26.4743
27.5963
29.0236
29.8547
30.1327
30.2308
30.2826
30.3235
30.2823
30.1991
30.0374
29.7811
29.2453
28.4046
27.786
27.7438
28.7852
30.1278
30.9669
31.2612
31.3241
31.3568
31.377
31.3551
31.2863
31.165
30.9131
30.3896
29.6139
29.0397
27.0003
27.9719
29.2471
30.107
30.4363
30.5064
30.5285
30.5428
30.5224
30.46
30.3371
30.0685
29.5324
28.7968
28.2546
27.6379
28.5561
29.7846
30.6581
31.0187
31.0942
31.1063
31.112
31.0955
31.0399
30.9185
30.636
30.0947
29.3866
28.8712
27.3007
28.1669
29.3485
30.2283
30.618
30.7062
30.7122
30.7117
30.6962
30.6447
30.5182
30.2217
29.6772
28.9942
28.505
27.5987
28.4232
29.568
30.4533
30.8699
30.9718
30.9741
30.9675
30.9526
30.9034
30.7713
30.4615
29.9143
29.2506
28.7826
27.4992
28.2841
29.3921
30.2778
30.7173
30.8337
30.8341
30.8224
30.8071
30.7592
30.6208
30.3
29.7527
29.108
28.6604
27.6001
28.3521
29.4286
30.3135
30.7736
30.9054
30.9066
30.8906
30.8741
30.8254
30.68
30.3491
29.8022
29.1736
28.7429
