# vtk DataFile Version 3.0
Structured Grid Example
ASCII
DATASET STRUCTURED_GRID
DIMENSIONS 15 30 1
POINTS 450 FLOAT
0.0833327 0.0333334 0
0.0833313 0.1 0
0.0833301 0.166667 0
0.083329 0.233333 0
0.0833281 0.3 0
0.0833274 0.366667 0
0.083327 0.433333 0
0.0833268 0.5 0
0.083327 0.566667 0
0.0833274 0.633333 0
0.0833281 0.7 0
0.083329 0.766667 0
0.0833301 0.833333 0
0.0833313 0.9 0
0.0833327 0.966667 0
0.249998 0.0333334 0
0.249993 0.1 0
0.249989 0.166667 0
0.249986 0.233334 0
0.249983 0.3 0
0.24998 0.366667 0
0.249979 0.433333 0
0.249979 0.5 0
0.249979 0.566667 0
0.24998 0.633333 0
0.249983 0.7 0
0.249986 0.766666 0
0.249989 0.833333 0
0.249993 0.9 0
0.249998 0.966667 0
0.416662 0.0333336 0
0.416654 0.100001 0
0.416646 0.166668 0
0.416639 0.233334 0
0.416633 0.300001 0
0.416628 0.366667 0
0.416626 0.433334 0
0.416625 0.5 0
0.416626 0.566666 0
0.416628 0.633333 0
0.416633 0.699999 0
0.416639 0.766666 0
0.416646 0.833332 0
0.416654 0.899999 0
0.416662 0.966666 0
0.583326 0.033334 0
0.58331 0.100002 0
0.583296 0.166669 0
0.583284 0.233336 0
0.583273 0.300003 0
0.583266 0.366669 0
0.583261 0.433335 0
0.583259 0.5 0
0.583261 0.566665 0
0.583266 0.633331 0
0.583273 0.699997 0
0.583284 0.766664 0
0.583296 0.833331 0
0.58331 0.899998 0
0.583326 0.966666 0
0.749987 0.0333351 0
0.749961 0.100005 0
0.749937 0.166674 0
0.749915 0.233342 0
0.749898 0.300008 0
0.749884 0.366673 0
0.749876 0.433337 0
0.749874 0.5 0
0.749876 0.566663 0
0.749884 0.633327 0
0.749898 0.699992 0
0.749915 0.766658 0
0.749937 0.833326 0
0.749961 0.899995 0
0.749987 0.966665 0
0.916644 0.033338 0
0.916601 0.100013 0
0.91656 0.166686 0
0.916524 0.233356 0
0.916494 0.300021 0
0.916472 0.366683 0
0.916458 0.433342 0
0.916454 0.5 0
0.916458 0.566658 0
0.916472 0.633317 0
0.916494 0.699979 0
0.916524 0.766644 0
0.91656 0.833314 0
0.916601 0.899987 0
0.916644 0.966662 0
1.0833 0.0333461 0
1.08322 0.100036 0
1.08315 0.166719 0
1.08309 0.233394 0
1.08304 0.300058 0
1.08301 0.366712 0
1.08298 0.433358 0
1.08298 0.5 0
1.08298 0.566642 0
1.08301 0.633288 0
1.08304 0.699942 0
1.08309 0.766606 0
1.08315 0.833281 0
1.08322 0.899964 0
1.0833 0.966654 0
1.24994 0.0333682 0
1.24981 0.100098 0
1.2497 0.16681 0
1.24959 0.233497 0
1.24951 0.300156 0
1.24945 0.366788 0
1.24942 0.433399 0
1.2494 0.5 0
1.24942 0.566601 0
1.24945 0.633212 0
1.24951 0.699844 0
1.24959 0.766503 0
1.2497 0.83319 0
1.24981 0.899902 0
1.24994 0.966632 0
1.41656 0.0334298 0
1.41634 0.10027 0
1.41615 0.16706 0
1.41598 0.233778 0
1.41585 0.300419 0
1.41575 0.36699 0
1.41569 0.433509 0
1.41567 0.5 0
1.41569 0.566491 0
1.41575 0.63301 0
1.41585 0.699581 0
1.41598 0.766222 0
1.41615 0.83294 0
1.41634 0.89973 0
1.41656 0.96657 0
1.58313 0.0336075 0
1.58275 0.10076 0
1.58242 0.167751 0
1.58215 0.234537 0
1.58195 0.301115 0
1.58181 0.367517 0
1.58173 0.433791 0
1.58171 0.5 0
1.58173 0.566209 0
1.58181 0.632483 0
1.58195 0.698885 0
1.58215 0.765463 0
1.58242 0.832249 0
1.58275 0.89924 0
1.58313 0.966392 0
1.74959 0.0341677 0
1.74885 0.102235 0
1.74829 0.169714 0
1.74791 0.236575 0
1.74766 0.302905 0
1.74751 0.368829 0
1.74744 0.434482 0
1.74741 0.5 0
1.74744 0.565518 0
1.74751 0.631171 0
1.74766 0.697095 0
1.74791 0.763425 0
1.74829 0.830286 0
1.74885 0.897765 0
1.74959 0.965832 0
1.91555 0.0363295 0
1.91388 0.107253 0
1.91312 0.175401 0
1.91283 0.241837 0
1.91276 0.307169 0
1.91277 0.371793 0
1.9128 0.435995 0
1.91281 0.5 0
1.9128 0.564005 0
1.91277 0.628207 0
1.91276 0.692831 0
1.91283 0.758163 0
1.91312 0.824599 0
1.91388 0.892747 0
1.91555 0.963671 0
2.07838 0.0591504 0
2.07417 0.125973 0
2.07554 0.190391 0
2.07663 0.253364 0
2.07743 0.315525 0
2.07798 0.377223 0
2.07829 0.438667 0
2.0784 0.5 0
2.07829 0.561333 0
2.07798 0.622777 0
2.07743 0.684475 0
2.07663 0.746636 0
2.07554 0.809609 0
2.07417 0.874027 0
2.07838 0.94085 0
2.24384 0.096456 0
2.23911 0.153168 0
2.24152 0.210396 0
2.24318 0.267878 0
2.24431 0.325632 0
2.24503 0.383617 0
2.24544 0.441767 0
2.24557 0.5 0
2.24544 0.558233 0
2.24503 0.616383 0
2.24431 0.674368 0
2.24318 0.732122 0
2.24152 0.789604 0
2.23911 0.846832 0
2.24384 0.903544 0
2.41462 0.118677 0
2.41292 0.170231 0
2.41356 0.223198 0
2.41406 0.277268 0
2.41444 0.332207 0
2.4147 0.387788 0
2.41485 0.44379 0
2.4149 0.5 0
2.41485 0.55621 0
2.4147 0.612212 0
2.41444 0.667793 0
2.41406 0.722732 0
2.41356 0.776802 0
2.41292 0.829769 0
2.41462 0.881323 0
2.58538 0.118677 0
2.58708 0.170231 0
2.58644 0.223198 0
2.58594 0.277268 0
2.58556 0.332207 0
2.5853 0.387788 0
2.58515 0.44379 0
2.5851 0.5 0
2.58515 0.55621 0
2.5853 0.612212 0
2.58556 0.667793 0
2.58594 0.722732 0
2.58644 0.776802 0
2.58708 0.829769 0
2.58538 0.881323 0
2.75616 0.096456 0
2.76089 0.153168 0
2.75848 0.210396 0
2.75682 0.267878 0
2.75569 0.325632 0
2.75497 0.383617 0
2.75456 0.441767 0
2.75443 0.5 0
2.75456 0.558233 0
2.75497 0.616383 0
2.75569 0.674368 0
2.75682 0.732122 0
2.75848 0.789604 0
2.76089 0.846832 0
2.75616 0.903544 0
2.92162 0.0591504 0
2.92583 0.125973 0
2.92446 0.190391 0
2.92337 0.253364 0
2.92257 0.315525 0
2.92202 0.377223 0
2.92171 0.438667 0
2.9216 0.5 0
2.92171 0.561333 0
2.92202 0.622777 0
2.92257 0.684475 0
2.92337 0.746636 0
2.92446 0.809609 0
2.92583 0.874027 0
2.92162 0.94085 0
3.08445 0.0363295 0
3.08612 0.107253 0
3.08688 0.175401 0
3.08717 0.241837 0
3.08724 0.307169 0
3.08723 0.371793 0
3.0872 0.435995 0
3.08719 0.5 0
3.0872 0.564005 0
3.08723 0.628207 0
3.08724 0.692831 0
3.08717 0.758163 0
3.08688 0.824599 0
3.08612 0.892747 0
3.08445 0.963671 0
3.25041 0.0341677 0
3.25115 0.102235 0
3.25171 0.169714 0
3.25209 0.236575 0
3.25234 0.302905 0
3.25249 0.368829 0
3.25256 0.434482 0
3.25259 0.5 0
3.25256 0.565518 0
3.25249 0.631171 0
3.25234 0.697095 0
3.25209 0.763425 0
3.25171 0.830286 0
3.25115 0.897765 0
3.25041 0.965832 0
3.41687 0.0336075 0
3.41725 0.10076 0
3.41758 0.167751 0
3.41785 0.234537 0
3.41805 0.301115 0
3.41819 0.367517 0
3.41827 0.433791 0
3.41829 0.5 0
3.41827 0.566209 0
3.41819 0.632483 0
3.41805 0.698885 0
3.41785 0.765463 0
3.41758 0.832249 0
3.41725 0.89924 0
3.41687 0.966392 0
3.58344 0.0334298 0
3.58366 0.10027 0
3.58385 0.16706 0
3.58402 0.233778 0
3.58415 0.300419 0
3.58425 0.36699 0
3.58431 0.433509 0
3.58433 0.5 0
3.58431 0.566491 0
3.58425 0.63301 0
3.58415 0.699581 0
3.58402 0.766222 0
3.58385 0.83294 0
3.58366 0.89973 0
3.58344 0.96657 0
3.75006 0.0333682 0
3.75019 0.100098 0
3.7503 0.16681 0
3.75041 0.233497 0
3.75049 0.300156 0
3.75055 0.366788 0
3.75058 0.433399 0
3.7506 0.5 0
3.75058 0.566601 0
3.75055 0.633212 0
3.75049 0.699844 0
3.75041 0.766503 0
3.7503 0.83319 0
3.75019 0.899902 0
3.75006 0.966632 0
3.9167 0.0333461 0
3.91678 0.100036 0
3.91685 0.166719 0
3.91691 0.233394 0
3.91696 0.300058 0
3.91699 0.366712 0
3.91702 0.433358 0
3.91702 0.5 0
3.91702 0.566642 0
3.91699 0.633288 0
3.91696 0.699942 0
3.91691 0.766606 0
3.91685 0.833281 0
3.91678 0.899964 0
3.9167 0.966654 0
4.08336 0.033338 0
4.0834 0.100013 0
4.08344 0.166686 0
4.08348 0.233356 0
4.08351 0.300021 0
4.08353 0.366683 0
4.08354 0.433342 0
4.08355 0.5 0
4.08354 0.566658 0
4.08353 0.633317 0
4.08351 0.699979 0
4.08348 0.766644 0
4.08344 0.833314 0
4.0834 0.899987 0
4.08336 0.966662 0
4.25001 0.0333351 0
4.25004 0.100005 0
4.25006 0.166674 0
4.25008 0.233342 0
4.2501 0.300008 0
4.25012 0.366673 0
4.25012 0.433337 0
4.25013 0.5 0
4.25012 0.566663 0
4.25012 0.633327 0
4.2501 0.699992 0
4.25008 0.766658 0
4.25006 0.833326 0
4.25004 0.899995 0
4.25001 0.966665 0
4.41667 0.033334 0
4.41669 0.100002 0
4.4167 0.166669 0
4.41672 0.233336 0
4.41673 0.300003 0
4.41673 0.366669 0
4.41674 0.433335 0
4.41674 0.5 0
4.41674 0.566665 0
4.41673 0.633331 0
4.41673 0.699997 0
4.41672 0.766664 0
4.4167 0.833331 0
4.41669 0.899998 0
4.41667 0.966666 0
4.58334 0.0333336 0
4.58335 0.100001 0
4.58335 0.166668 0
4.58336 0.233334 0
4.58337 0.300001 0
4.58337 0.366667 0
4.58337 0.433334 0
4.58338 0.5 0
4.58337 0.566666 0
4.58337 0.633333 0
4.58337 0.699999 0
4.58336 0.766666 0
4.58335 0.833332 0
4.58335 0.899999 0
4.58334 0.966666 0
4.75 0.0333334 0
4.75001 0.1 0
4.75001 0.166667 0
4.75001 0.233334 0
4.75002 0.3 0
4.75002 0.366667 0
4.75002 0.433333 0
4.75002 0.5 0
4.75002 0.566667 0
4.75002 0.633333 0
4.75002 0.7 0
4.75001 0.766666 0
4.75001 0.833333 0
4.75001 0.9 0
4.75 0.966667 0
4.91667 0.0333334 0
4.91667 0.1 0
4.91667 0.166667 0
4.91667 0.233333 0
4.91667 0.3 0
4.91667 0.366667 0
4.91667 0.433333 0
4.91667 0.5 0
4.91667 0.566667 0
4.91667 0.633333 0
4.91667 0.7 0
4.91667 0.766667 0
4.91667 0.833333 0
4.91667 0.9 0
4.91667 0.966667 0
POINT_DATA 450
SCALARS pressure float 1
LOOKUP_TABLE default
94435.1
94441.2
94453.1
94468.7
94484.1
94498.6
94507.4
94511.4
94507.4
94498.6
94484.2
94468.8
94453.2
94441.3
94435.2
94224
94217.6
94215.3
94207.8
94201.4
94196.5
94191
94191.5
94191.2
94196.8
94201.8
94208.3
94215.8
94218.2
94224.6
94662
94635.6
94600.2
94546.9
94495.5
94449.8
94417.4
94408.3
94417.5
94450.1
94496
94547.6
94600.9
94636.3
94662.9
94342.2
94301.9
94242
94155.4
94072.1
93996.2
93945.9
93928.6
93946.1
93996.5
94072.6
94156
94242.7
94302.8
94343
94882.2
94832.4
94751.3
94638.6
94529.1
94429.2
94364.3
94340.5
94364.5
94429.5
94529.7
94639.4
94752.2
94833.4
94883.3
94338.3
94286.7
94197.6
94074.3
93957
93845.1
93778.1
93748
93778.2
93845.2
93957.2
94074.5
94198
94287.1
94338.7
94959.1
94919.5
94841.4
94738.1
94637.8
94541.6
94485.3
94458.1
94485.5
94541.7
94638.1
94738.5
94841.9
94920
94959.6
94109.6
94081
94027
93946.6
93881.3
93802.1
93771
93740.6
93770.7
93801.7
93880.5
93945.6
94025.8
94079.7
94108.2
94917
94907.6
94884.2
94850.9
94828.2
94792.2
94786
94767.4
94785.9
94791.8
94827.9
94850.1
94883.6
94906.7
94916.2
93836.6
93792.1
93800.8
93750.4
93773.3
93733.1
93763.3
93729.3
93762.3
93731.3
93770.3
93746.8
93796.1
93787
93831.1
95127.4
95020.8
95024.7
94979.9
95010.9
94995
95031.5
95009
95031
94992.7
95009.5
94975.7
95022.4
95015.4
95124.3
94392.1
93669.5
93684.2
93344.6
93370
93237.9
93277.1
93219.6
93274.6
93234.2
93362.4
93336.1
93670.9
93654.7
94372.9
95939.3
95334.2
94981.2
94754.3
94681.2
94604.3
94607.2
94578.7
94606.6
94598.6
94679.9
94741
94980.4
95309.2
95939.4
89051
90147.1
89792
90517.8
90345.8
90807.7
90632.7
90914
90632.3
90812.3
90344.6
90529.7
89790.4
90173.2
89042.3
90163.5
91480.3
91385.2
92224.7
92080
92618.3
92398.3
92742.6
92394.7
92621
92068.7
92231.3
91365.3
91493
90126.8
87327.2
88810.7
88600.3
89599.9
89374.1
90046
89740.5
90189.8
89733.4
90042.1
89351.5
89589.1
88559
88784.7
87251.7
91717.1
92484.9
92268
92838.2
92633.8
93061
92814.2
93137.3
92808.3
93063.8
92614.6
92842.9
92230.8
92487.3
91652.5
93192
92678.9
92563.5
92403.5
92299.2
92321.7
92212.7
92310.9
92209.7
92338
92289.8
92440.6
92545.1
92750
93186.2
96850.4
95815.9
95640.8
95160.3
95024.5
94831.6
94765.7
94735.7
94772.1
94844
95046
95185.5
95683.9
95853.5
96949.4
93086.5
93143.6
93099.8
93100.5
93042.9
93043.6
92993.3
93019.4
92992.1
93044.6
93039
93101
93092.7
93140.3
93076.9
95278
95165.8
95084.9
94930.3
94834.9
94723.1
94673
94643.3
94675.1
94727
94841.1
94937.2
95094.3
95174.7
95290.1
93731.1
93695
93634.3
93551.8
93465.5
93394.6
93339.4
93327.5
93339
93394.1
93464.2
93550.7
93632.5
93693.7
93730
94851.8
94802.3
94727
94616.8
94516
94419
94360.9
94335.9
94361.1
94419.5
94516.7
94617.5
94727.8
94803.2
94853
93984.9
93948.7
93884.8
93797.3
93711.2
93632.2
93581.5
93561.9
93581.3
93631.9
93710.7
93796.8
93884.2
93948.5
93985.1
94554.9
94528.8
94477.7
94410
94343.7
94280.8
94243.2
94225.8
94243.1
94280.6
94343.5
94409.7
94477.4
94528.5
94554.6
94005.5
93993.9
93964.2
93927.9
93891.1
93855.6
93835.6
93824.7
93835.6
93855.7
93891.2
93928
93964.4
93994.2
94006
94329.9
94329.3
94318.6
94308.7
94298.1
94286.6
94282.4
94277.2
94282.4
94286.6
94298.2
94308.7
94318.6
94329.2
94329.7
93980.6
93987.2
93991.1
94000.2
94008.7
94015.1
94021.9
94021.6
94022.1
94015.5
94009.4
94001
93991.9
93988
93981.3
94226.2
94234.5
94244.4
94260.2
94275.9
94289.3
94299.9
94301.9
94300.1
94289.6
94276.4
94260.7
94244.9
94234.8
94226.5
94003.8
94009
94017.3
94028.9
94040.8
94051.1
94058.7
94060.8
94058.9
94051.6
94041.5
94029.8
94018.3
94010.1
94004.9
SCALARS density float 1
LOOKUP_TABLE default
1.21425
1.2143
1.21441
1.21455
1.21469
1.21482
1.2149
1.21493
1.2149
1.21482
1.21469
1.21455
1.21441
1.21431
1.21425
1.21228
1.21222
1.2122
1.21214
1.21208
1.21204
1.21199
1.212
1.21199
1.21204
1.21209
1.21214
1.21221
1.21223
1.21228
1.2163
1.21606
1.21574
1.21525
1.21478
1.21436
1.21406
1.21398
1.21407
1.21436
1.21478
1.21526
1.21575
1.21607
1.21631
1.21337
1.213
1.21245
1.21166
1.21089
1.2102
1.20973
1.20957
1.20973
1.2102
1.2109
1.21166
1.21246
1.21301
1.21338
1.21832
1.21787
1.21712
1.21609
1.21509
1.21417
1.21357
1.21336
1.21358
1.21417
1.21509
1.2161
1.21713
1.21788
1.21833
1.21335
1.21288
1.21206
1.21093
1.20985
1.20882
1.2082
1.20793
1.20821
1.20882
1.20985
1.21093
1.21206
1.21288
1.21335
1.21901
1.21865
1.21794
1.21699
1.21607
1.21519
1.21467
1.21442
1.21467
1.21519
1.21607
1.21699
1.21794
1.21866
1.21902
1.2113
1.21104
1.21055
1.20981
1.20921
1.20849
1.2082
1.20792
1.2082
1.20848
1.20921
1.2098
1.21054
1.21103
1.21129
1.2185
1.21842
1.21822
1.21793
1.21773
1.2174
1.21735
1.21718
1.21735
1.2174
1.21773
1.21793
1.21822
1.21841
1.2185
1.20915
1.20874
1.20877
1.20827
1.20846
1.20809
1.20836
1.20804
1.20835
1.20807
1.20844
1.20824
1.20873
1.20869
1.2091
1.21946
1.2187
1.21892
1.21866
1.21903
1.21893
1.21929
1.21909
1.21929
1.21892
1.21902
1.21863
1.2189
1.21865
1.21944
1.21701
1.20941
1.20903
1.20546
1.20549
1.20409
1.20439
1.20381
1.20437
1.20405
1.20541
1.20537
1.20889
1.20927
1.21683
1.22418
1.21972
1.21721
1.21576
1.21536
1.21486
1.21496
1.21474
1.21495
1.21481
1.21536
1.21567
1.21722
1.21946
1.22417
1.16364
1.17445
1.17084
1.17777
1.17616
1.18056
1.17892
1.18157
1.17891
1.1806
1.17615
1.17788
1.17081
1.17483
1.1642
1.17504
1.18782
1.18644
1.19417
1.19267
1.19766
1.19556
1.19877
1.19553
1.19769
1.19257
1.19422
1.18625
1.18815
1.17523
1.14676
1.16124
1.15923
1.16862
1.16652
1.17286
1.17004
1.17424
1.16998
1.17283
1.1663
1.1685
1.15887
1.16124
1.14657
1.18838
1.19606
1.19433
1.19958
1.19779
1.2017
1.1995
1.20242
1.19945
1.20173
1.19761
1.1996
1.19401
1.19634
1.18872
1.20136
1.19743
1.19667
1.19499
1.19403
1.19417
1.19324
1.19409
1.19322
1.19433
1.19394
1.19529
1.19652
1.19852
1.20263
1.23279
1.22523
1.22453
1.22039
1.21922
1.21753
1.217
1.21672
1.21706
1.21764
1.21939
1.22054
1.22496
1.22606
1.23493
1.19951
1.20087
1.20121
1.20144
1.20094
1.20096
1.20055
1.20079
1.20054
1.20096
1.20086
1.20137
1.20122
1.20137
1.20051
1.21973
1.21941
1.21941
1.21828
1.21745
1.21645
1.21603
1.21578
1.21605
1.21647
1.21746
1.21828
1.2196
1.22006
1.2209
1.20568
1.20594
1.20606
1.20563
1.20489
1.20425
1.20377
1.20367
1.20377
1.20423
1.20482
1.20555
1.20618
1.20651
1.20667
1.216
1.21611
1.21607
1.21541
1.21456
1.21367
1.21316
1.21295
1.21317
1.21366
1.2145
1.21536
1.21624
1.21671
1.217
1.20811
1.20828
1.20831
1.20788
1.20719
1.20647
1.20601
1.20584
1.20601
1.20643
1.20711
1.20783
1.20849
1.20888
1.20906
1.21335
1.21358
1.21371
1.21347
1.21298
1.21241
1.21207
1.21192
1.21207
1.21238
1.21291
1.21344
1.21391
1.21418
1.21427
1.20839
1.20872
1.20902
1.20908
1.20888
1.20857
1.20838
1.20829
1.20838
1.20853
1.20881
1.20906
1.20924
1.20933
1.2093
1.21128
1.21169
1.21214
1.21244
1.21249
1.21241
1.21236
1.21232
1.21235
1.21236
1.21242
1.21243
1.21237
1.21228
1.21216
1.20837
1.20883
1.2094
1.20988
1.21013
1.21022
1.21028
1.21027
1.21026
1.21017
1.21006
1.20989
1.20966
1.20944
1.20925
1.21
1.21044
1.21104
1.21158
1.2119
1.21205
1.21214
1.21215
1.21212
1.212
1.21183
1.21159
1.2113
1.21104
1.21084
1.2095
1.20989
1.21046
1.21095
1.21124
1.21136
1.21141
1.21142
1.21139
1.2113
1.21117
1.21098
1.21073
1.2105
1.21034
SCALARS u-velocity float 1
LOOKUP_TABLE default
99.7371
99.7139
99.6706
99.6139
99.5564
99.504
99.4704
99.457
99.4707
99.5046
99.5574
99.6151
99.672
99.7155
99.7387
98.8342
98.8223
98.7884
98.7496
98.7091
98.6711
98.6496
98.6377
98.6496
98.671
98.709
98.7496
98.7883
98.8222
98.8341
99.6506
99.667
99.679
99.7037
99.7238
99.7426
99.7563
99.7591
99.7565
99.7431
99.7246
99.7047
99.6802
99.6684
99.652
98.4714
98.4981
98.5332
98.5878
98.6404
98.6883
98.7215
98.7314
98.7214
98.6881
98.64
98.5873
98.5325
98.4973
98.4704
99.6245
99.6749
99.7488
99.8538
99.9481
100.039
100.092
100.117
100.093
100.04
99.9502
99.8564
99.7521
99.6786
99.6285
98.1799
98.2125
98.276
98.3687
98.4639
98.5548
98.6114
98.6359
98.6114
98.5549
98.4639
98.3687
98.2754
98.2114
98.1784
99.7559
99.8361
99.9462
100.095
100.208
100.333
100.387
100.43
100.389
100.337
100.214
100.102
99.956
99.848
99.7695
98.0585
98.0254
98.0304
98.0749
98.1296
98.2004
98.2334
98.2638
98.2345
98.203
98.1324
98.0792
98.0327
98.0256
98.0554
99.7725
100.056
100.221
100.487
100.6
100.779
100.806
100.877
100.81
100.788
100.615
100.504
100.245
100.088
99.815
97.5578
97.423
97.5108
97.6738
97.7781
97.9612
98.0178
98.1037
98.0233
97.9741
97.7915
97.6972
97.53
97.4369
97.5415
97.9873
99.8088
100.102
101.235
101.658
102.139
102.28
102.399
102.289
102.155
101.689
101.269
100.148
99.8696
98.1279
89.7849
94.7565
96.5031
98.221
99.1501
100.219
100.586
100.878
100.602
100.258
99.1921
98.2945
96.5818
94.9111
89.7072
90.1671
94.3361
101.811
104.033
106.471
106.863
107.869
107.601
107.885
106.894
106.527
104.126
101.94
94.4061
90.4464
123.921
120.382
120.94
119.47
119.758
118.258
118.646
117.774
118.646
118.232
119.765
119.398
120.889
120.436
125.092
134.857
130.598
127.573
124.976
123.923
122.152
121.964
121.186
121.981
122.172
123.97
124.976
127.644
131.06
136.027
137.013
133.265
130.011
127.557
126.341
124.878
124.495
123.94
124.527
124.932
126.43
127.651
130.252
133.9
138.161
117.946
120.345
118.198
118.433
117.373
117.457
116.714
116.952
116.736
117.459
117.42
118.385
118.335
120.881
120.197
89.4161
101.772
102.688
106.274
106.493
108.558
108.15
109.087
108.116
108.488
106.348
105.985
102.402
102.371
92.2705
79.3548
90.7847
95.7225
99.1398
100.315
102.056
102.198
102.847
102.155
101.999
100.097
98.8697
95.5026
91.8452
81.7747
96.1391
98.8047
102.036
103.035
103.469
103.964
104.042
104.275
104.039
103.949
103.354
102.871
102.174
100.081
98.6672
91.1158
93.8721
97.0206
98.6131
99.2089
99.7704
99.949
100.17
99.9408
99.7308
99.0483
98.4238
97.2088
95.1785
93.5274
95.8579
97.9277
100.525
101.811
102.258
102.471
102.604
102.688
102.609
102.438
102.123
101.679
100.839
99.2796
98.1806
93.3378
95.3218
97.8023
99.2585
99.7904
100.018
100.147
100.231
100.147
99.9671
99.6347
99.1372
98.1711
96.6971
95.607
95.4929
97.2899
99.576
101.011
101.554
101.716
101.807
101.856
101.805
101.656
101.399
100.924
100.003
98.6689
97.6819
94.2981
95.9881
98.1762
99.6418
100.224
100.378
100.437
100.472
100.427
100.302
100.062
99.5779
98.6484
97.3808
96.447
95.4546
97.0205
99.0857
100.53
101.128
101.262
101.286
101.301
101.269
101.174
100.965
100.493
99.5942
98.4077
97.5424
94.9879
96.4634
98.4434
99.8815
100.503
100.633
100.632
100.629
100.605
100.533
100.34
99.8696
98.9869
97.8557
97.0402
95.5325
96.9227
98.8186
100.243
100.89
101.025
101.008
100.991
100.973
100.914
100.729
100.256
99.3891
98.3085
97.5389
95.4089
96.7344
98.5695
99.9953
100.677
100.831
100.809
100.781
100.765
100.71
100.519
100.031
99.1656
98.1184
97.3815
95.483
96.7551
98.5417
99.9754
100.7
100.889
100.875
100.842
100.822
100.759
100.548
100.034
99.1593
98.1334
97.4208
SCALARS v-velocity float 1
LOOKUP_TABLE default
-0.0153505
-0.0414639
-0.0605083
-0.0704805
-0.0663632
-0.0527775
-0.028412
1.99224e-05
0.0284538
0.052811
0.066393
0.0704974
0.0605219
0.0414649
0.0153571
-0.0622741
-0.161246
-0.243766
-0.277037
-0.265969
-0.207562
-0.113251
0.000448104
0.114143
0.208401
0.266743
0.277687
0.244281
0.161559
0.0623923
-0.0634815
-0.15883
-0.246736
-0.273819
-0.267396
-0.204945
-0.113818
-0.000321606
0.113217
0.204372
0.266919
0.273416
0.246446
0.158644
0.0634175
-0.0399256
-0.097401
-0.158811
-0.170998
-0.172712
-0.128551
-0.0729547
0.000809374
0.074555
0.130064
0.174108
0.172187
0.159765
0.0979987
0.0401429
-0.00359178
0.00203512
-0.0135093
0.000980476
-0.0117756
0.00036704
-0.00484794
-0.000830593
0.00327709
-0.00194276
0.0103468
-0.00228803
0.0124251
-0.00274596
0.00329529
0.0721055
0.186702
0.262038
0.306425
0.277092
0.224047
0.117673
0.00222161
-0.113376
-0.219932
-0.273383
-0.303203
-0.259402
-0.18498
-0.0714472
0.108296
0.293817
0.433681
0.512118
0.479593
0.384573
0.205214
-0.000673
-0.206297
-0.386089
-0.481105
-0.513922
-0.435714
-0.295345
-0.109189
0.230937
0.53295
0.784688
0.875086
0.8196
0.640155
0.34608
0.00665379
-0.33344
-0.627578
-0.808252
-0.864822
-0.775723
-0.526517
-0.227991
0.187904
0.542335
0.836325
0.948546
0.915863
0.71592
0.394295
0.00300853
-0.386895
-0.711289
-0.911609
-0.946993
-0.837836
-0.545555
-0.192364
0.542277
0.932061
1.33377
1.45896
1.29894
1.01205
0.534267
0.016521
-0.504116
-0.980084
-1.27049
-1.43192
-1.30982
-0.910845
-0.526485
1.24303
2.04033
2.50859
2.45782
2.19828
1.60323
0.864218
0.0194415
-0.817442
-1.56814
-2.16008
-2.43321
-2.48697
-2.03835
-1.27443
-0.230765
3.57527
2.82637
3.41627
2.3547
1.94504
0.901309
0.0341174
-0.844052
-1.8796
-2.30375
-3.36032
-2.79892
-3.55553
0.267736
23.1816
20.064
16.1187
13.0383
9.16154
6.20572
2.99238
0.0655264
-2.83366
-6.07144
-8.98164
-12.9022
-15.8946
-19.8913
-22.9532
25.1469
16.0666
13.157
8.66294
6.59957
3.8168
2.03448
0.0741975
-1.89555
-3.66501
-6.46052
-8.49426
-12.9903
-15.8683
-25.316
11.401
7.07345
6.71662
4.1114
3.68487
1.96645
1.19643
0.0676185
-1.11406
-1.83679
-3.62959
-3.99259
-6.71565
-7.0374
-11.6325
-8.25208
-8.61286
-4.75934
-4.88484
-2.45628
-2.1605
-0.713993
0.125398
0.891613
2.41355
2.63871
5.14995
4.96152
8.90121
8.48306
-20.9093
-18.2188
-12.2546
-10.2102
-6.34553
-4.49806
-1.89466
0.155572
2.11681
4.83264
6.60119
10.6248
12.6297
18.8844
21.5853
-23.4106
-18.5798
-14.6614
-11.1226
-8.07206
-5.15064
-2.51136
0.188368
2.70759
5.55073
8.27139
11.6104
14.9018
19.3462
23.9944
-2.55689
-0.714413
-2.54693
-1.68218
-2.0852
-1.17212
-0.76067
0.0446589
0.784837
1.24707
2.08855
1.73099
2.51803
0.649383
2.41818
-2.00406
-2.46298
-3.06932
-2.62513
-2.44143
-1.59852
-0.877209
0.057066
0.944303
1.70178
2.50258
2.7125
3.10741
2.42305
1.9824
-0.281733
-0.481246
-0.696601
-0.568863
-0.689321
-0.439256
-0.28011
0.0115759
0.287044
0.458207
0.701926
0.591992
0.698388
0.436956
0.256684
-0.231403
-0.498369
-0.646178
-0.5748
-0.601333
-0.416679
-0.241942
0.0131663
0.259056
0.440511
0.623747
0.598286
0.643675
0.455197
0.208165
-0.0516429
-0.12805
-0.125605
-0.0648394
-0.0980157
-0.0625675
-0.0467888
0.00383261
0.0516595
0.0724867
0.113057
0.08083
0.121723
0.0976347
0.0339816
-0.0148057
-0.0222494
0.0271338
0.0998681
0.0800074
0.0690656
0.0281355
0.00215456
-0.0247246
-0.061235
-0.067493
-0.0904063
-0.0386918
-0.0103424
-0.00308585
0.03666
0.108813
0.212325
0.292918
0.273983
0.214912
0.10959
0.00142739
-0.106152
-0.206727
-0.260634
-0.283026
-0.220726
-0.133606
-0.0504596
0.0499829
0.143393
0.262294
0.344669
0.332754
0.259808
0.135005
-0.000655013
-0.135059
-0.255027
-0.32375
-0.340809
-0.275795
-0.169527
-0.0636125
0.0539487
0.151285
0.268826
0.3431
0.336172
0.261488
0.137929
-7.60078e-06
-0.13622
-0.254805
-0.325743
-0.33806
-0.279264
-0.172262
-0.0649007
0.0363231
0.104049
0.195726
0.255538
0.256719
0.199066
0.104517
-0.00188524
-0.106302
-0.195916
-0.250571
-0.255288
-0.20945
-0.125659
-0.0470222
0.0191709
0.058717
0.122082
0.166483
0.172617
0.13356
0.0700053
-0.00139179
-0.0706358
-0.129312
-0.165877
-0.165594
-0.133623
-0.07686
-0.0280982
-0.00556873
-0.00509064
0.0233518
0.0537745
0.0652061
0.0504951
0.0244736
-0.0026675
-0.027572
-0.0487906
-0.0614873
-0.0561646
-0.0373851
-0.0141254
-0.00356148
SCALARS Mach float 1
LOOKUP_TABLE default
30.1465
30.1322
30.1055
30.0704
30.035
30.0027
29.982
29.9737
29.9822
30.0031
30.0356
30.0712
30.1063
30.1331
30.1475
29.6122
29.6055
29.5854
29.5626
29.5387
29.5161
29.5034
29.4962
29.5034
29.5161
29.5386
29.5626
29.5853
29.6054
29.6122
30.0836
30.0948
30.1037
30.1211
30.1356
30.149
30.1586
30.1607
30.1588
30.1493
30.1361
30.1217
30.1044
30.0955
30.0844
29.39
29.4078
29.4315
29.468
29.5032
29.5352
29.5574
29.564
29.5573
29.5351
29.503
29.4677
29.4311
29.4073
29.3894
30.0578
30.0905
30.1388
30.2075
30.2695
30.3292
30.3644
30.3803
30.3648
30.33
30.2708
30.209
30.1408
30.0927
30.0602
29.2166
29.2384
29.2803
29.3412
29.4032
29.4625
29.4992
29.5152
29.4992
29.4625
29.4032
29.3412
29.28
29.2378
29.2157
30.1335
30.184
30.2545
30.3495
30.4228
30.5031
30.538
30.5655
30.5393
30.5055
30.4264
30.3541
30.2605
30.1912
30.1417
29.1554
29.1377
29.1441
29.1746
29.2098
29.2547
29.2749
29.294
29.2755
29.2562
29.2114
29.1771
29.1455
29.1379
29.1536
30.1439
30.3168
30.4193
30.5831
30.6534
30.7629
30.7786
30.8226
30.7814
30.7683
30.6622
30.5936
30.434
30.3363
30.1697
28.8753
28.7993
28.853
28.9524
29.0117
29.1201
29.1501
29.2019
29.1533
29.1277
29.0196
28.9662
28.8644
28.8076
28.8659
29.0587
30.1644
30.3505
31.044
31.3
31.5909
31.6714
31.744
31.6767
31.6006
31.3188
31.0649
30.3778
30.2013
29.1426
24.4639
27.306
28.2993
29.3361
29.8707
30.5165
30.7285
30.9068
30.738
30.5396
29.8955
29.379
28.3454
27.3952
24.4223
26.167
28.1198
32.147
33.2789
34.5799
34.7022
35.2678
35.0684
35.2757
34.7181
34.6062
33.3281
32.2054
28.1395
26.2874
48.8477
44.9955
45.1665
43.7415
43.8673
42.6607
42.921
42.2619
42.9196
42.6386
43.867
43.6798
45.1149
45.0169
49.7789
55.8837
52.0942
49.6983
47.5517
46.7519
45.3599
45.2265
44.6243
45.2388
45.3724
46.787
47.5486
49.755
52.4649
56.8835
57.7023
54.5015
51.7419
49.7356
48.7561
47.5804
47.3002
46.8446
47.3255
47.6252
48.8291
49.8173
51.944
55.043
58.7022
43.6509
45.0268
42.9374
42.9289
41.9903
41.9612
41.3989
41.5355
41.4175
41.9716
42.0347
42.9195
43.0673
45.4997
45.3913
25.9244
32.5134
32.6967
34.7021
34.6716
35.9019
35.5787
36.1723
35.5601
35.8682
34.5882
34.5472
32.5414
32.9756
27.5975
19.0076
24.9102
27.7291
29.7563
30.4773
31.5451
31.6346
32.0373
31.608
31.5099
30.3437
29.5928
27.6
25.499
20.1885
28.0532
29.6438
31.6356
32.2527
32.5249
32.8269
32.8735
33.0173
32.8721
32.8182
32.4533
32.1503
31.7229
30.4206
29.5609
25.1051
26.6597
28.4909
29.4437
29.8058
30.1486
30.259
30.3944
30.254
30.1244
29.7085
29.3296
28.6023
27.4128
26.4627
27.8528
29.0779
30.6526
31.4499
31.7318
31.8669
31.9526
32.0056
31.9556
31.8467
31.6473
31.3676
30.8464
29.8934
29.231
26.3631
27.5041
28.9653
29.8434
30.1697
30.3122
30.3934
30.4453
30.3932
30.2808
30.0748
29.7698
29.186
28.3103
27.6716
27.6314
28.6887
30.0634
30.9452
31.2838
31.3879
31.4467
31.4779
31.445
31.3503
31.1877
30.8912
30.3239
29.515
28.924
26.9212
27.9013
29.1974
30.0835
30.4404
30.537
30.5746
30.5969
30.5685
30.4906
30.3411
30.0445
29.4814
28.724
28.1728
27.6094
28.5284
29.7644
30.6453
31.0141
31.0984
31.1142
31.1236
31.1034
31.0439
30.9136
30.6225
30.0734
29.3573
28.8411
27.3256
28.186
29.3623
30.2318
30.6117
30.6916
30.6906
30.6893
30.6745
30.6298
30.5115
30.2245
29.6902
29.0127
28.5296
27.6579
28.4731
29.6044
30.4689
30.8648
30.9479
30.9371
30.9265
30.9154
30.8792
30.7657
30.4765
29.9503
29.3005
28.8422
27.5689
28.3442
29.4356
30.2975
30.7133
30.8074
30.7932
30.7759
30.766
30.7325
30.6162
30.3192
29.7958
29.1682
28.7307
27.6387
28.3839
29.4474
30.3148
30.7574
30.8727
30.8638
30.8432
30.8312
30.7926
30.6636
30.3503
29.8209
29.2055
28.7818
