# vtk DataFile Version 3.0
Structured Grid Example
ASCII
DATASET STRUCTURED_GRID
DIMENSIONS 15 30 1
POINTS 450 FLOAT
0.0833327 0.0333334 0
0.0833313 0.1 0
0.0833301 0.166667 0
0.083329 0.233333 0
0.0833281 0.3 0
0.0833274 0.366667 0
0.083327 0.433333 0
0.0833268 0.5 0
0.083327 0.566667 0
0.0833274 0.633333 0
0.0833281 0.7 0
0.083329 0.766667 0
0.0833301 0.833333 0
0.0833313 0.9 0
0.0833327 0.966667 0
0.249998 0.0333334 0
0.249993 0.1 0
0.249989 0.166667 0
0.249986 0.233334 0
0.249983 0.3 0
0.24998 0.366667 0
0.249979 0.433333 0
0.249979 0.5 0
0.249979 0.566667 0
0.24998 0.633333 0
0.249983 0.7 0
0.249986 0.766666 0
0.249989 0.833333 0
0.249993 0.9 0
0.249998 0.966667 0
0.416662 0.0333336 0
0.416654 0.100001 0
0.416646 0.166668 0
0.416639 0.233334 0
0.416633 0.300001 0
0.416628 0.366667 0
0.416626 0.433334 0
0.416625 0.5 0
0.416626 0.566666 0
0.416628 0.633333 0
0.416633 0.699999 0
0.416639 0.766666 0
0.416646 0.833332 0
0.416654 0.899999 0
0.416662 0.966666 0
0.583326 0.033334 0
0.58331 0.100002 0
0.583296 0.166669 0
0.583284 0.233336 0
0.583273 0.300003 0
0.583266 0.366669 0
0.583261 0.433335 0
0.583259 0.5 0
0.583261 0.566665 0
0.583266 0.633331 0
0.583273 0.699997 0
0.583284 0.766664 0
0.583296 0.833331 0
0.58331 0.899998 0
0.583326 0.966666 0
0.749987 0.0333351 0
0.749961 0.100005 0
0.749937 0.166674 0
0.749915 0.233342 0
0.749898 0.300008 0
0.749884 0.366673 0
0.749876 0.433337 0
0.749874 0.5 0
0.749876 0.566663 0
0.749884 0.633327 0
0.749898 0.699992 0
0.749915 0.766658 0
0.749937 0.833326 0
0.749961 0.899995 0
0.749987 0.966665 0
0.916644 0.033338 0
0.916601 0.100013 0
0.91656 0.166686 0
0.916524 0.233356 0
0.916494 0.300021 0
0.916472 0.366683 0
0.916458 0.433342 0
0.916454 0.5 0
0.916458 0.566658 0
0.916472 0.633317 0
0.916494 0.699979 0
0.916524 0.766644 0
0.91656 0.833314 0
0.916601 0.899987 0
0.916644 0.966662 0
1.0833 0.0333461 0
1.08322 0.100036 0
1.08315 0.166719 0
1.08309 0.233394 0
1.08304 0.300058 0
1.08301 0.366712 0
1.08298 0.433358 0
1.08298 0.5 0
1.08298 0.566642 0
1.08301 0.633288 0
1.08304 0.699942 0
1.08309 0.766606 0
1.08315 0.833281 0
1.08322 0.899964 0
1.0833 0.966654 0
1.24994 0.0333682 0
1.24981 0.100098 0
1.2497 0.16681 0
1.24959 0.233497 0
1.24951 0.300156 0
1.24945 0.366788 0
1.24942 0.433399 0
1.2494 0.5 0
1.24942 0.566601 0
1.24945 0.633212 0
1.24951 0.699844 0
1.24959 0.766503 0
1.2497 0.83319 0
1.24981 0.899902 0
1.24994 0.966632 0
1.41656 0.0334298 0
1.41634 0.10027 0
1.41615 0.16706 0
1.41598 0.233778 0
1.41585 0.300419 0
1.41575 0.36699 0
1.41569 0.433509 0
1.41567 0.5 0
1.41569 0.566491 0
1.41575 0.63301 0
1.41585 0.699581 0
1.41598 0.766222 0
1.41615 0.83294 0
1.41634 0.89973 0
1.41656 0.96657 0
1.58313 0.0336075 0
1.58275 0.10076 0
1.58242 0.167751 0
1.58215 0.234537 0
1.58195 0.301115 0
1.58181 0.367517 0
1.58173 0.433791 0
1.58171 0.5 0
1.58173 0.566209 0
1.58181 0.632483 0
1.58195 0.698885 0
1.58215 0.765463 0
1.58242 0.832249 0
1.58275 0.89924 0
1.58313 0.966392 0
1.74959 0.0341677 0
1.74885 0.102235 0
1.74829 0.169714 0
1.74791 0.236575 0
1.74766 0.302905 0
1.74751 0.368829 0
1.74744 0.434482 0
1.74741 0.5 0
1.74744 0.565518 0
1.74751 0.631171 0
1.74766 0.697095 0
1.74791 0.763425 0
1.74829 0.830286 0
1.74885 0.897765 0
1.74959 0.965832 0
1.91555 0.0363295 0
1.91388 0.107253 0
1.91312 0.175401 0
1.91283 0.241837 0
1.91276 0.307169 0
1.91277 0.371793 0
1.9128 0.435995 0
1.91281 0.5 0
1.9128 0.564005 0
1.91277 0.628207 0
1.91276 0.692831 0
1.91283 0.758163 0
1.91312 0.824599 0
1.91388 0.892747 0
1.91555 0.963671 0
2.07838 0.0591504 0
2.07417 0.125973 0
2.07554 0.190391 0
2.07663 0.253364 0
2.07743 0.315525 0
2.07798 0.377223 0
2.07829 0.438667 0
2.0784 0.5 0
2.07829 0.561333 0
2.07798 0.622777 0
2.07743 0.684475 0
2.07663 0.746636 0
2.07554 0.809609 0
2.07417 0.874027 0
2.07838 0.94085 0
2.24384 0.096456 0
2.23911 0.153168 0
2.24152 0.210396 0
2.24318 0.267878 0
2.24431 0.325632 0
2.24503 0.383617 0
2.24544 0.441767 0
2.24557 0.5 0
2.24544 0.558233 0
2.24503 0.616383 0
2.24431 0.674368 0
2.24318 0.732122 0
2.24152 0.789604 0
2.23911 0.846832 0
2.24384 0.903544 0
2.41462 0.118677 0
2.41292 0.170231 0
2.41356 0.223198 0
2.41406 0.277268 0
2.41444 0.332207 0
2.4147 0.387788 0
2.41485 0.44379 0
2.4149 0.5 0
2.41485 0.55621 0
2.4147 0.612212 0
2.41444 0.667793 0
2.41406 0.722732 0
2.41356 0.776802 0
2.41292 0.829769 0
2.41462 0.881323 0
2.58538 0.118677 0
2.58708 0.170231 0
2.58644 0.223198 0
2.58594 0.277268 0
2.58556 0.332207 0
2.5853 0.387788 0
2.58515 0.44379 0
2.5851 0.5 0
2.58515 0.55621 0
2.5853 0.612212 0
2.58556 0.667793 0
2.58594 0.722732 0
2.58644 0.776802 0
2.58708 0.829769 0
2.58538 0.881323 0
2.75616 0.096456 0
2.76089 0.153168 0
2.75848 0.210396 0
2.75682 0.267878 0
2.75569 0.325632 0
2.75497 0.383617 0
2.75456 0.441767 0
2.75443 0.5 0
2.75456 0.558233 0
2.75497 0.616383 0
2.75569 0.674368 0
2.75682 0.732122 0
2.75848 0.789604 0
2.76089 0.846832 0
2.75616 0.903544 0
2.92162 0.0591504 0
2.92583 0.125973 0
2.92446 0.190391 0
2.92337 0.253364 0
2.92257 0.315525 0
2.92202 0.377223 0
2.92171 0.438667 0
2.9216 0.5 0
2.92171 0.561333 0
2.92202 0.622777 0
2.92257 0.684475 0
2.92337 0.746636 0
2.92446 0.809609 0
2.92583 0.874027 0
2.92162 0.94085 0
3.08445 0.0363295 0
3.08612 0.107253 0
3.08688 0.175401 0
3.08717 0.241837 0
3.08724 0.307169 0
3.08723 0.371793 0
3.0872 0.435995 0
3.08719 0.5 0
3.0872 0.564005 0
3.08723 0.628207 0
3.08724 0.692831 0
3.08717 0.758163 0
3.08688 0.824599 0
3.08612 0.892747 0
3.08445 0.963671 0
3.25041 0.0341677 0
3.25115 0.102235 0
3.25171 0.169714 0
3.25209 0.236575 0
3.25234 0.302905 0
3.25249 0.368829 0
3.25256 0.434482 0
3.25259 0.5 0
3.25256 0.565518 0
3.25249 0.631171 0
3.25234 0.697095 0
3.25209 0.763425 0
3.25171 0.830286 0
3.25115 0.897765 0
3.25041 0.965832 0
3.41687 0.0336075 0
3.41725 0.10076 0
3.41758 0.167751 0
3.41785 0.234537 0
3.41805 0.301115 0
3.41819 0.367517 0
3.41827 0.433791 0
3.41829 0.5 0
3.41827 0.566209 0
3.41819 0.632483 0
3.41805 0.698885 0
3.41785 0.765463 0
3.41758 0.832249 0
3.41725 0.89924 0
3.41687 0.966392 0
3.58344 0.0334298 0
3.58366 0.10027 0
3.58385 0.16706 0
3.58402 0.233778 0
3.58415 0.300419 0
3.58425 0.36699 0
3.58431 0.433509 0
3.58433 0.5 0
3.58431 0.566491 0
3.58425 0.63301 0
3.58415 0.699581 0
3.58402 0.766222 0
3.58385 0.83294 0
3.58366 0.89973 0
3.58344 0.96657 0
3.75006 0.0333682 0
3.75019 0.100098 0
3.7503 0.16681 0
3.75041 0.233497 0
3.75049 0.300156 0
3.75055 0.366788 0
3.75058 0.433399 0
3.7506 0.5 0
3.75058 0.566601 0
3.75055 0.633212 0
3.75049 0.699844 0
3.75041 0.766503 0
3.7503 0.83319 0
3.75019 0.899902 0
3.75006 0.966632 0
3.9167 0.0333461 0
3.91678 0.100036 0
3.91685 0.166719 0
3.91691 0.233394 0
3.91696 0.300058 0
3.91699 0.366712 0
3.91702 0.433358 0
3.91702 0.5 0
3.91702 0.566642 0
3.91699 0.633288 0
3.91696 0.699942 0
3.91691 0.766606 0
3.91685 0.833281 0
3.91678 0.899964 0
3.9167 0.966654 0
4.08336 0.033338 0
4.0834 0.100013 0
4.08344 0.166686 0
4.08348 0.233356 0
4.08351 0.300021 0
4.08353 0.366683 0
4.08354 0.433342 0
4.08355 0.5 0
4.08354 0.566658 0
4.08353 0.633317 0
4.08351 0.699979 0
4.08348 0.766644 0
4.08344 0.833314 0
4.0834 0.899987 0
4.08336 0.966662 0
4.25001 0.0333351 0
4.25004 0.100005 0
4.25006 0.166674 0
4.25008 0.233342 0
4.2501 0.300008 0
4.25012 0.366673 0
4.25012 0.433337 0
4.25013 0.5 0
4.25012 0.566663 0
4.25012 0.633327 0
4.2501 0.699992 0
4.25008 0.766658 0
4.25006 0.833326 0
4.25004 0.899995 0
4.25001 0.966665 0
4.41667 0.033334 0
4.41669 0.100002 0
4.4167 0.166669 0
4.41672 0.233336 0
4.41673 0.300003 0
4.41673 0.366669 0
4.41674 0.433335 0
4.41674 0.5 0
4.41674 0.566665 0
4.41673 0.633331 0
4.41673 0.699997 0
4.41672 0.766664 0
4.4167 0.833331 0
4.41669 0.899998 0
4.41667 0.966666 0
4.58334 0.0333336 0
4.58335 0.100001 0
4.58335 0.166668 0
4.58336 0.233334 0
4.58337 0.300001 0
4.58337 0.366667 0
4.58337 0.433334 0
4.58338 0.5 0
4.58337 0.566666 0
4.58337 0.633333 0
4.58337 0.699999 0
4.58336 0.766666 0
4.58335 0.833332 0
4.58335 0.899999 0
4.58334 0.966666 0
4.75 0.0333334 0
4.75001 0.1 0
4.75001 0.166667 0
4.75001 0.233334 0
4.75002 0.3 0
4.75002 0.366667 0
4.75002 0.433333 0
4.75002 0.5 0
4.75002 0.566667 0
4.75002 0.633333 0
4.75002 0.7 0
4.75001 0.766666 0
4.75001 0.833333 0
4.75001 0.9 0
4.75 0.966667 0
4.91667 0.0333334 0
4.91667 0.1 0
4.91667 0.166667 0
4.91667 0.233333 0
4.91667 0.3 0
4.91667 0.366667 0
4.91667 0.433333 0
4.91667 0.5 0
4.91667 0.566667 0
4.91667 0.633333 0
4.91667 0.7 0
4.91667 0.766667 0
4.91667 0.833333 0
4.91667 0.9 0
4.91667 0.966667 0
POINT_DATA 450
SCALARS pressure float 1
LOOKUP_TABLE default
94472.8
94472.8
94472.8
94472.8
94472.8
94472.8
94472.8
94472.8
94472.8
94472.8
94472.8
94472.8
94472.8
94472.8
94472.8
94207.6
94207.3
94206.9
94206.3
94205.8
94205.2
94204.9
94204.7
94204.9
94205.1
94205.7
94206.2
94206.9
94207.2
94207.5
94537.2
94536.8
94536.2
94535.3
94534.4
94533.5
94533
94532.8
94533
94533.5
94534.4
94535.3
94536.2
94536.8
94537.2
94139.4
94138.7
94138.1
94136.6
94135.9
94134.3
94134.2
94133.3
94134.1
94134.2
94135.8
94136.4
94137.9
94138.5
94139.1
94615.3
94614.9
94614.1
94613
94612.1
94610.9
94610.5
94610
94610.4
94610.9
94612
94612.9
94614.1
94614.8
94615.2
94052
94050.6
94050.5
94047.3
94047.6
94044
94045.3
94042.5
94045.2
94043.7
94047.2
94046.8
94049.9
94049.9
94051.3
94717.7
94716.7
94716.1
94713.7
94713.1
94710.6
94710.9
94709.2
94710.8
94710.4
94712.9
94713.3
94715.8
94716.3
94717.4
93948.4
93941
93941.4
93927.7
93929.6
93916
93921.3
93911.3
93920.9
93915.3
93928.4
93926.3
93939.7
93939.2
93946.5
94877.5
94866.4
94862.1
94845.5
94841.5
94827.3
94828.3
94820.1
94828.1
94826.7
94840.9
94844.4
94861.2
94865
94876.3
93903.8
93838.4
93833.6
93754.5
93751.6
93691.7
93702.6
93668.6
93701.5
93689.8
93748.4
93750.8
93828.8
93833.3
93898.3
95278.4
95137.5
95100.1
94990.5
94959.4
94889.7
94885.9
94854.1
94885.4
94887.5
94958.2
94986.5
95098.2
95132.5
95275.8
94571.3
93811
93769.5
93352.6
93302.5
93104.4
93097.9
93026.5
93095.6
93100.9
93295.2
93344.6
93756.7
93796.6
94552.6
96100.3
95459
95050.3
94755.9
94614.5
94481.3
94443.8
94403.9
94443.3
94475.6
94613.3
94742.7
95050
95434.2
96101
89134.8
90212.5
89828.1
90519.1
90314.6
90746.9
90554.1
90827.9
90553.8
90751.6
90313.8
90531.2
89827
90239.1
89126.7
90210.1
91519.6
91410.2
92232.2
92070.6
92592.1
92363.2
92702.2
92359.8
92595.1
92059.8
92239.3
91391.1
91533.1
90174.4
87372.6
88850
88628.2
89612.6
89372.3
90029.2
89716.3
90160.5
89709.5
90025.7
89350.4
89602.5
88587.9
88825
87298.1
91767.7
92527.6
92295.8
92847.9
92625.3
93035.6
92779.1
93097
92773.4
93038.8
92606.7
92853.5
92259.5
92531
91704.1
93243.4
92725.1
92593.4
92411.5
92287
92287.6
92168.6
92259.1
92165.8
92304.4
92278.2
92449.5
92575.6
92797.1
93238.1
96863.6
95832
95650.6
95164.3
95022.5
94821.2
94753.8
94719
94760.4
94833.9
95044.4
95190
95694.2
95870.3
96963.4
93014
93088.4
93062.9
93092
93061
93083
93050.3
93078.7
93049.2
93084.5
93057.7
93093.2
93056.6
93085.9
93005.2
95121.6
95040
95000
94906.8
94870.7
94811
94798.1
94778.6
94800.5
94815.4
94877.6
94914.7
95010.4
95049.9
95134.5
93516.4
93520.5
93519.4
93523.4
93520.7
93525
93520.9
93525.6
93520.7
93525.1
93520.2
93523.3
93518.6
93520.2
93516.1
94616.8
94610.4
94604.6
94592.3
94586.9
94576.7
94575.6
94571.2
94576.1
94577.8
94588.4
94594
94606.5
94612.3
94618.7
93777.9
93778.9
93780.2
93782
93783.6
93785.3
93786.1
93786.7
93786.1
93785.5
93783.7
93782.3
93780.5
93779.4
93778.5
94403.8
94403.6
94403.8
94403.4
94404.1
94403.7
94404.5
94404
94404.6
94403.9
94404.3
94403.6
94403.9
94403.7
94403.8
93920.1
93920.8
93922.1
93923.6
93925.2
93926.5
93927.5
93927.8
93927.6
93926.7
93925.5
93923.9
93922.5
93921.3
93920.7
94301.8
94302
94302.5
94303.1
94303.9
94304.4
94305
94305
94304.9
94304.4
94303.8
94303
94302.4
94301.8
94301.5
93994
93994.2
93994.8
93995.3
93995.9
93996.4
93996.8
93996.9
93996.8
93996.5
93996.1
93995.6
93995.1
93994.7
93994.5
94255.7
94255.7
94255.7
94255.7
94255.7
94255.7
94255.7
94255.7
94255.7
94255.6
94255.6
94255.6
94255.6
94255.6
94255.6
94025
94025.2
94025.4
94025.4
94025.5
94025.5
94025.5
94025.5
94025.6
94025.7
94025.7
94025.8
94025.8
94025.8
94025.8
SCALARS density float 1
LOOKUP_TABLE default
1.21459
1.21459
1.21459
1.21459
1.21459
1.21459
1.21459
1.21459
1.21459
1.21459
1.21459
1.21459
1.21459
1.21459
1.21459
1.21214
1.21213
1.21213
1.21213
1.21212
1.21212
1.21212
1.21211
1.21212
1.21212
1.21212
1.21213
1.21213
1.21213
1.21214
1.21516
1.21516
1.21515
1.21515
1.21514
1.21513
1.21513
1.21513
1.21513
1.21513
1.21514
1.21515
1.21516
1.21516
1.21516
1.21151
1.21151
1.2115
1.21149
1.21148
1.21147
1.21147
1.21146
1.21147
1.21147
1.21148
1.21149
1.2115
1.21151
1.21151
1.21588
1.21588
1.21587
1.21586
1.21585
1.21584
1.21584
1.21584
1.21584
1.21584
1.21585
1.21586
1.21587
1.21588
1.21588
1.21072
1.21071
1.21071
1.21068
1.21069
1.21066
1.21067
1.21064
1.21067
1.21065
1.21068
1.21068
1.21071
1.2107
1.21072
1.21681
1.2168
1.21679
1.21677
1.21677
1.21674
1.21675
1.21673
1.21675
1.21674
1.21677
1.21677
1.21679
1.21679
1.2168
1.20982
1.20976
1.20977
1.20964
1.20966
1.20954
1.20959
1.2095
1.20959
1.20954
1.20965
1.20963
1.20975
1.20975
1.20981
1.21815
1.21805
1.21803
1.21789
1.21786
1.21773
1.21774
1.21767
1.21774
1.21773
1.21786
1.21788
1.21802
1.21804
1.21814
1.20977
1.20917
1.20908
1.20832
1.20827
1.20771
1.20781
1.20749
1.2078
1.20769
1.20824
1.20828
1.20904
1.20913
1.20972
1.22085
1.21977
1.21962
1.21877
1.21857
1.21798
1.21797
1.21769
1.21796
1.21796
1.21856
1.21874
1.2196
1.21973
1.22083
1.21867
1.21072
1.20982
1.20555
1.20487
1.20286
1.20274
1.20203
1.20272
1.20282
1.2048
1.20546
1.20969
1.21058
1.2185
1.22567
1.22088
1.21786
1.21579
1.21476
1.21374
1.21347
1.21315
1.21347
1.21369
1.21476
1.21569
1.21787
1.22062
1.22567
1.16443
1.17507
1.17118
1.17779
1.17588
1.18
1.1782
1.18078
1.17819
1.18005
1.17588
1.1779
1.17116
1.17545
1.16499
1.17547
1.18818
1.18668
1.19425
1.19259
1.19743
1.19524
1.19841
1.19521
1.19746
1.19249
1.1943
1.1865
1.18853
1.17568
1.1472
1.16161
1.1595
1.16875
1.16651
1.17271
1.16982
1.17398
1.16976
1.17268
1.1663
1.16864
1.15915
1.16162
1.14701
1.18885
1.19646
1.1946
1.19968
1.19772
1.20147
1.19918
1.20206
1.19913
1.2015
1.19755
1.19971
1.19428
1.19674
1.18919
1.20183
1.19786
1.19695
1.19507
1.19392
1.19386
1.19284
1.19361
1.19282
1.19402
1.19384
1.19538
1.19681
1.19896
1.20311
1.23292
1.22538
1.22462
1.22043
1.2192
1.21743
1.21689
1.21657
1.21695
1.21754
1.21938
1.22059
1.22505
1.22622
1.23507
1.19884
1.20037
1.20087
1.20136
1.2011
1.20132
1.20107
1.20134
1.20107
1.20133
1.20103
1.2013
1.20089
1.20087
1.19985
1.21829
1.21825
1.21863
1.21807
1.21778
1.21725
1.21718
1.21702
1.21721
1.21729
1.21779
1.21807
1.21883
1.21892
1.21947
1.20371
1.20434
1.20501
1.20537
1.2054
1.20545
1.20544
1.2055
1.20544
1.20543
1.20533
1.2053
1.20514
1.20492
1.20471
1.21385
1.21435
1.21495
1.21519
1.21521
1.21513
1.21514
1.21511
1.21514
1.21512
1.21516
1.21515
1.21513
1.21496
1.21485
1.20622
1.20673
1.20736
1.20774
1.20786
1.20788
1.2079
1.20792
1.2079
1.20785
1.20779
1.2077
1.20754
1.20733
1.20717
1.21198
1.21244
1.21304
1.21342
1.21354
1.21355
1.21356
1.21357
1.21356
1.21352
1.21347
1.21339
1.21325
1.21305
1.2129
1.20762
1.20806
1.20864
1.20905
1.2092
1.20923
1.20924
1.20925
1.20923
1.20919
1.20913
1.20903
1.20887
1.20867
1.20852
1.21104
1.21145
1.212
1.2124
1.21256
1.21258
1.21258
1.21258
1.21257
1.21253
1.21248
1.21239
1.21223
1.21204
1.21191
1.20851
1.2089
1.20944
1.20985
1.21003
1.21006
1.21006
1.21005
1.21004
1.21001
1.20996
1.20986
1.2097
1.20951
1.20938
1.21027
1.21064
1.21115
1.21154
1.21172
1.21176
1.21175
1.21174
1.21173
1.2117
1.21165
1.21155
1.21141
1.21123
1.21112
1.20965
1.21001
1.21051
1.2109
1.2111
1.21114
1.21113
1.21112
1.21111
1.21108
1.21103
1.21093
1.21078
1.21061
1.21049
SCALARS u-velocity float 1
LOOKUP_TABLE default
99.5975
99.5982
99.5988
99.5998
99.6003
99.6012
99.6013
99.6019
99.6016
99.6018
99.6011
99.6009
99.6
99.5995
99.599
98.7372
98.7372
98.7372
98.7373
98.7375
98.7378
98.7381
98.7382
98.7382
98.738
98.7379
98.7378
98.7377
98.7378
98.7379
99.6971
99.6995
99.7024
99.707
99.7097
99.7136
99.7144
99.7163
99.7149
99.7145
99.711
99.7086
99.7044
99.7017
99.6994
98.6067
98.6049
98.6026
98.6008
98.6
98.5997
98.5997
98.5998
98.5998
98.5999
98.6003
98.6012
98.603
98.6052
98.6069
99.8386
99.8478
99.8578
99.8732
99.8806
99.8926
99.8941
99.9003
99.8951
99.8945
99.8834
99.8768
99.8622
99.8528
99.844
98.427
98.4166
98.4038
98.3951
98.3902
98.3897
98.3886
98.39
98.3888
98.3903
98.3909
98.396
98.4042
98.4167
98.4266
99.9688
100.015
100.057
100.118
100.144
100.188
100.192
100.213
100.194
100.192
100.15
100.126
100.067
100.028
99.9833
98.1802
98.1322
98.094
98.0888
98.0914
98.1129
98.1183
98.1332
98.1195
98.1158
98.0946
98.0935
98.0969
98.133
98.1777
99.7879
100.077
100.232
100.494
100.6
100.77
100.796
100.861
100.801
100.779
100.615
100.511
100.256
100.11
99.8306
97.449
97.3394
97.4545
97.6629
97.8093
98.03
98.1137
98.2063
98.1192
98.0429
97.8227
97.6862
97.4736
97.3532
97.4325
97.8126
99.6672
100.015
101.225
101.723
102.271
102.456
102.591
102.464
102.286
101.753
101.259
100.06
99.727
97.9523
89.608
94.6061
96.4245
98.2279
99.246
100.393
100.808
101.12
100.824
100.431
99.2871
98.3003
96.5019
94.7594
89.5294
90.0029
94.2071
101.737
104.029
106.533
106.986
108.03
107.779
108.046
107.018
106.589
104.122
101.866
94.2763
90.2836
123.812
120.3
120.883
119.447
119.759
118.285
118.686
117.821
118.686
118.259
119.766
119.376
120.831
120.353
124.985
134.829
130.577
127.565
124.975
123.931
122.167
121.982
121.207
121.999
122.186
123.978
124.975
127.636
131.038
136
136.998
133.259
130.022
127.58
126.38
124.925
124.551
123.997
124.583
124.979
126.468
127.674
130.263
133.892
138.145
117.886
120.315
118.199
118.468
117.438
117.546
116.818
117.062
116.84
117.547
117.484
118.418
118.335
120.85
120.135
89.3281
101.72
102.679
106.318
106.581
108.688
108.303
109.251
108.269
108.618
106.436
106.029
102.393
102.319
92.1807
79.2898
90.728
95.7004
99.1548
100.367
102.14
102.301
102.958
102.258
102.083
100.148
98.8838
95.4799
91.7878
81.7091
96.1381
98.7933
102.03
103.027
103.462
103.957
104.032
104.267
104.029
103.941
103.346
102.862
102.167
100.069
98.6651
91.1807
93.9149
97.0399
98.5968
99.1581
99.6884
99.8441
100.059
99.8356
99.6481
98.9966
98.4068
97.2282
95.2213
93.5914
96.0003
98.0363
100.586
101.807
102.191
102.346
102.439
102.511
102.444
102.313
102.055
101.675
100.901
99.3889
98.3227
93.5213
95.4703
97.8934
99.2756
99.7333
99.8933
99.9777
100.044
99.977
99.8414
99.577
99.1544
98.2634
96.8468
95.7908
95.6745
97.4431
99.676
101.046
101.522
101.623
101.675
101.707
101.672
101.562
101.367
100.959
100.104
98.8236
97.8643
94.4272
96.1018
98.2552
99.6806
100.221
100.336
100.372
100.395
100.362
100.26
100.059
99.6175
98.7291
97.4963
96.5773
95.4978
97.0625
99.1165
100.551
101.138
101.261
101.28
101.29
101.263
101.173
100.976
100.515
99.6266
98.4514
97.587
94.9412
96.4276
98.4187
99.8755
100.515
100.659
100.67
100.669
100.644
100.559
100.352
99.8647
98.9635
97.8214
96.995
95.4289
96.8364
98.757
100.217
100.898
101.064
101.069
101.058
101.034
100.954
100.738
100.231
99.3286
98.2235
97.4368
95.2879
96.6314
98.4963
99.962
100.682
100.873
100.874
100.855
100.83
100.752
100.525
99.9984
99.0933
98.0167
97.262
95.4172
96.7014
98.5105
99.973
100.725
100.941
100.943
100.917
100.891
100.811
100.574
100.031
99.1285
98.0804
97.3558
SCALARS v-velocity float 1
LOOKUP_TABLE default
-0.000630911
-0.00140964
-0.00221493
-0.00235455
-0.00231971
-0.00177565
-0.00108978
-0.000213618
0.000672561
0.00138244
0.00196862
0.00205968
0.00199074
0.00126973
0.000582481
0.00035645
0.000470856
0.000878401
0.000731637
0.000813313
0.000598467
0.00054582
0.000398102
0.000232358
0.000133084
-0.000160627
-0.000185212
-0.000463294
-0.000212397
-0.000266909
-0.00065544
-0.00136927
-0.0020804
-0.00187569
-0.00177259
-0.00117119
-0.000726597
-0.000140828
0.000455859
0.000903813
0.00152569
0.00165312
0.00189609
0.00125037
0.000608377
0.00392218
0.00783715
0.0125573
0.0127538
0.0126145
0.0094657
0.00589107
0.00124353
-0.00346594
-0.00717195
-0.0105596
-0.0110137
-0.0112145
-0.00699288
-0.00362263
-0.00127288
-0.00269017
-0.00267581
-0.00136078
-0.000255814
0.000430095
0.000404015
-5.06387e-05
-0.000470264
-0.000570885
8.65054e-05
0.00112106
0.00238505
0.00247737
0.0011545
0.0165501
0.0316565
0.0493687
0.0488228
0.0474074
0.0349644
0.020936
0.00330858
-0.0145188
-0.028812
-0.0418618
-0.0440203
-0.0455224
-0.0291723
-0.0156122
-0.00400932
-0.00573579
0.0013663
0.00704194
0.0124526
0.0111895
0.00789565
0.000686485
-0.00632607
-0.0101587
-0.0116663
-0.00687812
-0.00188755
0.00514803
0.00346495
0.0753005
0.124238
0.18256
0.180078
0.166955
0.123552
0.0696055
0.00817577
-0.0539707
-0.108106
-0.152985
-0.167562
-0.171844
-0.116707
-0.0719469
0.0165647
0.098209
0.172476
0.189296
0.19522
0.149453
0.088573
0.00471252
-0.0778428
-0.141663
-0.188128
-0.185358
-0.172161
-0.100324
-0.020616
0.37785
0.511245
0.696885
0.736289
0.606897
0.471567
0.240514
0.0182046
-0.207068
-0.436475
-0.575621
-0.706855
-0.671098
-0.488868
-0.361591
1.11459
1.72032
2.0213
1.91443
1.6765
1.20044
0.644658
0.0211393
-0.59456
-1.16227
-1.63558
-1.88763
-1.99797
-1.71732
-1.14553
-0.314869
3.35694
2.50566
3.06732
2.02251
1.69468
0.76415
0.0353456
-0.70459
-1.62699
-1.96961
-3.00956
-2.47675
-3.33595
0.352645
23.1009
19.95
15.9912
12.9187
9.05916
6.13445
2.95513
0.0665173
-2.79448
-5.99852
-8.8777
-12.7817
-15.7662
-19.7772
-22.8721
25.1265
16.0635
13.1656
8.68893
6.62249
3.84197
2.04672
0.0752176
-1.9057
-3.6885
-6.48188
-8.51945
-12.9981
-15.8652
-25.2959
11.4075
7.09936
6.75351
4.15826
3.72663
2.00234
1.21503
0.0685382
-1.13075
-1.87111
-3.66993
-4.03857
-6.75185
-7.06317
-11.6393
-8.23291
-8.56855
-4.69744
-4.81313
-2.3906
-2.10724
-0.685715
0.126027
0.864846
2.36132
2.57409
5.07874
4.90003
8.85686
8.46358
-20.8594
-18.1305
-12.1364
-10.0834
-6.22852
-4.40789
-1.84602
0.155813
2.0689
4.74283
6.48454
10.4981
12.5113
18.7958
21.5348
-23.3193
-18.4059
-14.4321
-10.8726
-7.84556
-4.97496
-2.41811
0.188221
2.61465
5.37476
8.04489
11.3601
14.672
19.1722
23.9021
-2.46865
-0.482928
-2.20923
-1.30226
-1.72806
-0.895108
-0.610906
0.0442526
0.634646
0.969378
1.73108
1.35073
2.17995
0.417515
2.32955
-1.90882
-2.21273
-2.69049
-2.19644
-2.0302
-1.27958
-0.702816
0.0565273
0.769137
1.38181
2.09053
2.28294
2.72737
2.17142
1.88623
-0.19674
-0.266299
-0.363812
-0.196695
-0.32731
-0.161102
-0.126637
0.0106415
0.13194
0.178329
0.338475
0.21846
0.364105
0.220618
0.170872
-0.175249
-0.361083
-0.425545
-0.334468
-0.361555
-0.236558
-0.14076
0.0119161
0.155563
0.25811
0.382016
0.3562
0.421412
0.316632
0.151371
-0.0378797
-0.102439
-0.0714176
-0.0163761
-0.0397783
-0.0256326
-0.0230592
0.00226956
0.024982
0.0327523
0.0524342
0.0303895
0.0660182
0.07116
0.0198578
-0.0444703
-0.107874
-0.0876385
-0.0437063
-0.0456387
-0.0375195
-0.0264274
0.000405723
0.0265071
0.0422564
0.0555266
0.0511277
0.0747863
0.074841
0.0264699
-0.0262606
-0.0598844
-0.0315211
0.00464277
0.00745114
-0.000490247
-0.0050246
-0.000327769
0.00509717
0.00558239
0.00327295
0.00330912
0.0220752
0.0349545
0.0125155
-0.028496
-0.0624135
-0.0422999
-0.0094816
-0.000480586
-0.00579119
-0.00809503
-0.00225218
0.00495715
0.00774688
0.00706855
0.0115979
0.0279422
0.0362562
0.0149753
-0.0226721
-0.0477053
-0.029542
-0.000616534
0.00933786
0.00296156
-0.00243117
-0.00128436
0.00165643
0.00145503
-0.000853475
0.00428049
0.0184566
0.0267177
0.0118145
-0.0228124
-0.0486524
-0.0353652
-0.00866865
0.00352335
9.95517e-06
-0.00422712
-0.00278579
0.00066757
0.00152214
0.00121672
0.00791055
0.0211205
0.0269446
0.0121369
-0.0190682
-0.0401826
-0.0284697
-0.00428294
0.0078833
0.00488673
-0.000703824
-0.00190964
-0.000962377
-0.00157684
-0.00197172
0.00455216
0.0165271
0.0218451
0.0100886
-0.0190749
-0.0408004
-0.030818
-0.00712749
0.00630488
0.00482574
-0.000684583
-0.00273151
-0.00256385
-0.00324578
-0.00271491
0.00461993
0.0166342
0.0214305
0.00988353
SCALARS Mach float 1
LOOKUP_TABLE default
30.0603
30.0607
30.0611
30.0618
30.0621
30.0626
30.0627
30.063
30.0629
30.063
30.0626
30.0624
30.0619
30.0616
30.0612
29.555
29.555
29.555
29.5551
29.5553
29.5555
29.5556
29.5557
29.5557
29.5556
29.5555
29.5554
29.5553
29.5554
29.5554
30.1173
30.1188
30.1206
30.1234
30.1251
30.1275
30.1281
30.1292
30.1284
30.1281
30.1259
30.1245
30.1218
30.1202
30.1188
29.4799
29.4789
29.4776
29.4766
29.4761
29.4761
29.4761
29.4762
29.4762
29.4762
29.4763
29.4769
29.4778
29.4791
29.4801
30.1993
30.205
30.211
30.2204
30.225
30.2323
30.2332
30.237
30.2338
30.2335
30.2267
30.2226
30.2137
30.208
30.2026
29.3766
29.3705
29.3629
29.3579
29.355
29.3549
29.3541
29.3551
29.3543
29.3552
29.3555
29.3585
29.3632
29.3706
29.3765
30.2733
30.3016
30.3267
30.364
30.3796
30.4064
30.409
30.4218
30.4104
30.409
30.3836
30.369
30.3332
30.3094
30.2821
29.2348
29.2067
29.184
29.1815
29.183
29.1964
29.1994
29.2087
29.2001
29.1982
29.185
29.1844
29.1858
29.2072
29.2334
30.155
30.3308
30.4252
30.5853
30.6504
30.7546
30.7701
30.8106
30.7731
30.7601
30.6593
30.5959
30.4399
30.3506
30.1809
28.8076
28.7461
28.8144
28.941
29.0272
29.1605
29.2093
29.2658
29.2126
29.1681
29.0352
28.9549
28.8258
28.7544
28.7981
28.9477
30.07
30.2879
31.0306
31.336
31.6744
31.7865
31.8706
31.7918
31.6839
31.3545
31.051
30.3147
30.1063
29.031
24.3613
27.2091
28.2445
29.3331
29.9272
30.6258
30.8724
31.0648
30.8818
30.6487
29.9516
29.3754
28.2898
27.2974
24.3192
26.0604
28.0274
32.0862
33.2672
34.6179
34.7862
35.3814
35.1936
35.3892
34.8021
34.6441
33.3162
32.1442
28.0467
26.1813
48.7554
44.9302
45.1228
43.7263
43.8715
42.6854
42.9553
42.3018
42.9538
42.6631
43.8711
43.6645
45.0709
44.9507
49.6869
55.8575
52.0757
49.6918
47.5521
46.76
45.3732
45.243
44.6424
45.2552
45.3856
46.7948
47.5486
49.748
52.4454
56.8569
57.6852
54.4907
51.7474
49.7505
48.7853
47.6173
47.3447
46.8901
47.3698
47.6618
48.8578
49.8315
51.9485
55.0309
58.6833
43.5983
44.9927
42.9278
42.9455
42.0325
42.0239
41.4749
41.6162
41.4932
42.0338
42.0762
42.9351
43.0566
45.4642
45.336
25.8617
32.4599
32.6698
34.7141
34.7187
35.9842
35.6804
36.2839
35.6615
35.9497
34.6347
34.5577
32.5137
32.9205
27.5316
18.9749
24.8778
27.711
29.7617
30.5048
31.5958
31.6981
32.1077
31.6714
31.5601
30.3709
29.5976
27.5817
25.4658
20.1544
28.0547
29.6359
31.6267
32.2418
32.5138
32.8174
32.8638
33.0092
32.8621
32.8082
32.4416
32.1387
31.7137
30.4124
29.5619
25.1466
26.6885
28.5047
29.4341
29.7725
30.0946
30.1897
30.3211
30.1845
30.0699
29.6747
29.3195
28.6162
27.4421
26.5049
27.9447
29.1499
30.6946
31.4485
31.6867
31.7824
31.8411
31.8853
31.8439
31.7618
31.6016
31.3659
30.889
29.967
29.3253
26.4762
27.5978
29.0246
29.8548
30.132
30.2293
30.2807
30.3213
30.2803
30.1976
30.0367
29.7812
29.2463
28.4062
27.7879
27.7454
28.7866
30.1286
30.967
31.2606
31.3228
31.3551
31.3751
31.3534
31.285
31.1644
30.9133
30.3904
29.6153
29.0414
27.0012
27.9728
29.2476
30.1071
30.4359
30.5057
30.5275
30.5418
30.5214
30.4593
30.3368
30.0686
29.5329
28.7976
28.2556
27.6381
28.5563
29.7847
30.6582
31.0187
31.0941
31.1062
31.1119
31.0955
31.0399
30.9185
30.6361
30.0948
29.3867
28.8714
27.3001
28.1664
29.3481
30.2283
30.6183
30.7067
30.7129
30.7125
30.6969
30.6452
30.5185
30.2216
29.6768
28.9937
28.5043
27.5976
28.4222
29.5674
30.4532
30.8703
30.9726
30.9752
30.9688
30.9537
30.9043
30.7717
30.4614
29.9137
29.2496
28.7814
27.4979
28.2831
29.3914
30.2776
30.7178
30.8346
30.8354
30.8237
30.8084
30.7601
30.6212
30.2998
29.752
29.1069
28.6591
27.5993
28.3513
29.4281
30.3133
30.7738
30.9059
30.9074
30.8914
30.8749
30.8259
30.6802
30.349
29.8017
29.1728
28.742
