# vtk DataFile Version 3.0
Structured Grid Example
ASCII
DATASET STRUCTURED_GRID
DIMENSIONS 15 30 1
POINTS 450 FLOAT
0.0833327 0.0333334 0
0.0833313 0.1 0
0.0833301 0.166667 0
0.083329 0.233333 0
0.0833281 0.3 0
0.0833274 0.366667 0
0.083327 0.433333 0
0.0833268 0.5 0
0.083327 0.566667 0
0.0833274 0.633333 0
0.0833281 0.7 0
0.083329 0.766667 0
0.0833301 0.833333 0
0.0833313 0.9 0
0.0833327 0.966667 0
0.249998 0.0333334 0
0.249993 0.1 0
0.249989 0.166667 0
0.249986 0.233334 0
0.249983 0.3 0
0.24998 0.366667 0
0.249979 0.433333 0
0.249979 0.5 0
0.249979 0.566667 0
0.24998 0.633333 0
0.249983 0.7 0
0.249986 0.766666 0
0.249989 0.833333 0
0.249993 0.9 0
0.249998 0.966667 0
0.416662 0.0333336 0
0.416654 0.100001 0
0.416646 0.166668 0
0.416639 0.233334 0
0.416633 0.300001 0
0.416628 0.366667 0
0.416626 0.433334 0
0.416625 0.5 0
0.416626 0.566666 0
0.416628 0.633333 0
0.416633 0.699999 0
0.416639 0.766666 0
0.416646 0.833332 0
0.416654 0.899999 0
0.416662 0.966666 0
0.583326 0.033334 0
0.58331 0.100002 0
0.583296 0.166669 0
0.583284 0.233336 0
0.583273 0.300003 0
0.583266 0.366669 0
0.583261 0.433335 0
0.583259 0.5 0
0.583261 0.566665 0
0.583266 0.633331 0
0.583273 0.699997 0
0.583284 0.766664 0
0.583296 0.833331 0
0.58331 0.899998 0
0.583326 0.966666 0
0.749987 0.0333351 0
0.749961 0.100005 0
0.749937 0.166674 0
0.749915 0.233342 0
0.749898 0.300008 0
0.749884 0.366673 0
0.749876 0.433337 0
0.749874 0.5 0
0.749876 0.566663 0
0.749884 0.633327 0
0.749898 0.699992 0
0.749915 0.766658 0
0.749937 0.833326 0
0.749961 0.899995 0
0.749987 0.966665 0
0.916644 0.033338 0
0.916601 0.100013 0
0.91656 0.166686 0
0.916524 0.233356 0
0.916494 0.300021 0
0.916472 0.366683 0
0.916458 0.433342 0
0.916454 0.5 0
0.916458 0.566658 0
0.916472 0.633317 0
0.916494 0.699979 0
0.916524 0.766644 0
0.91656 0.833314 0
0.916601 0.899987 0
0.916644 0.966662 0
1.0833 0.0333461 0
1.08322 0.100036 0
1.08315 0.166719 0
1.08309 0.233394 0
1.08304 0.300058 0
1.08301 0.366712 0
1.08298 0.433358 0
1.08298 0.5 0
1.08298 0.566642 0
1.08301 0.633288 0
1.08304 0.699942 0
1.08309 0.766606 0
1.08315 0.833281 0
1.08322 0.899964 0
1.0833 0.966654 0
1.24994 0.0333682 0
1.24981 0.100098 0
1.2497 0.16681 0
1.24959 0.233497 0
1.24951 0.300156 0
1.24945 0.366788 0
1.24942 0.433399 0
1.2494 0.5 0
1.24942 0.566601 0
1.24945 0.633212 0
1.24951 0.699844 0
1.24959 0.766503 0
1.2497 0.83319 0
1.24981 0.899902 0
1.24994 0.966632 0
1.41656 0.0334298 0
1.41634 0.10027 0
1.41615 0.16706 0
1.41598 0.233778 0
1.41585 0.300419 0
1.41575 0.36699 0
1.41569 0.433509 0
1.41567 0.5 0
1.41569 0.566491 0
1.41575 0.63301 0
1.41585 0.699581 0
1.41598 0.766222 0
1.41615 0.83294 0
1.41634 0.89973 0
1.41656 0.96657 0
1.58313 0.0336075 0
1.58275 0.10076 0
1.58242 0.167751 0
1.58215 0.234537 0
1.58195 0.301115 0
1.58181 0.367517 0
1.58173 0.433791 0
1.58171 0.5 0
1.58173 0.566209 0
1.58181 0.632483 0
1.58195 0.698885 0
1.58215 0.765463 0
1.58242 0.832249 0
1.58275 0.89924 0
1.58313 0.966392 0
1.74959 0.0341677 0
1.74885 0.102235 0
1.74829 0.169714 0
1.74791 0.236575 0
1.74766 0.302905 0
1.74751 0.368829 0
1.74744 0.434482 0
1.74741 0.5 0
1.74744 0.565518 0
1.74751 0.631171 0
1.74766 0.697095 0
1.74791 0.763425 0
1.74829 0.830286 0
1.74885 0.897765 0
1.74959 0.965832 0
1.91555 0.0363295 0
1.91388 0.107253 0
1.91312 0.175401 0
1.91283 0.241837 0
1.91276 0.307169 0
1.91277 0.371793 0
1.9128 0.435995 0
1.91281 0.5 0
1.9128 0.564005 0
1.91277 0.628207 0
1.91276 0.692831 0
1.91283 0.758163 0
1.91312 0.824599 0
1.91388 0.892747 0
1.91555 0.963671 0
2.07838 0.0591504 0
2.07417 0.125973 0
2.07554 0.190391 0
2.07663 0.253364 0
2.07743 0.315525 0
2.07798 0.377223 0
2.07829 0.438667 0
2.0784 0.5 0
2.07829 0.561333 0
2.07798 0.622777 0
2.07743 0.684475 0
2.07663 0.746636 0
2.07554 0.809609 0
2.07417 0.874027 0
2.07838 0.94085 0
2.24384 0.096456 0
2.23911 0.153168 0
2.24152 0.210396 0
2.24318 0.267878 0
2.24431 0.325632 0
2.24503 0.383617 0
2.24544 0.441767 0
2.24557 0.5 0
2.24544 0.558233 0
2.24503 0.616383 0
2.24431 0.674368 0
2.24318 0.732122 0
2.24152 0.789604 0
2.23911 0.846832 0
2.24384 0.903544 0
2.41462 0.118677 0
2.41292 0.170231 0
2.41356 0.223198 0
2.41406 0.277268 0
2.41444 0.332207 0
2.4147 0.387788 0
2.41485 0.44379 0
2.4149 0.5 0
2.41485 0.55621 0
2.4147 0.612212 0
2.41444 0.667793 0
2.41406 0.722732 0
2.41356 0.776802 0
2.41292 0.829769 0
2.41462 0.881323 0
2.58538 0.118677 0
2.58708 0.170231 0
2.58644 0.223198 0
2.58594 0.277268 0
2.58556 0.332207 0
2.5853 0.387788 0
2.58515 0.44379 0
2.5851 0.5 0
2.58515 0.55621 0
2.5853 0.612212 0
2.58556 0.667793 0
2.58594 0.722732 0
2.58644 0.776802 0
2.58708 0.829769 0
2.58538 0.881323 0
2.75616 0.096456 0
2.76089 0.153168 0
2.75848 0.210396 0
2.75682 0.267878 0
2.75569 0.325632 0
2.75497 0.383617 0
2.75456 0.441767 0
2.75443 0.5 0
2.75456 0.558233 0
2.75497 0.616383 0
2.75569 0.674368 0
2.75682 0.732122 0
2.75848 0.789604 0
2.76089 0.846832 0
2.75616 0.903544 0
2.92162 0.0591504 0
2.92583 0.125973 0
2.92446 0.190391 0
2.92337 0.253364 0
2.92257 0.315525 0
2.92202 0.377223 0
2.92171 0.438667 0
2.9216 0.5 0
2.92171 0.561333 0
2.92202 0.622777 0
2.92257 0.684475 0
2.92337 0.746636 0
2.92446 0.809609 0
2.92583 0.874027 0
2.92162 0.94085 0
3.08445 0.0363295 0
3.08612 0.107253 0
3.08688 0.175401 0
3.08717 0.241837 0
3.08724 0.307169 0
3.08723 0.371793 0
3.0872 0.435995 0
3.08719 0.5 0
3.0872 0.564005 0
3.08723 0.628207 0
3.08724 0.692831 0
3.08717 0.758163 0
3.08688 0.824599 0
3.08612 0.892747 0
3.08445 0.963671 0
3.25041 0.0341677 0
3.25115 0.102235 0
3.25171 0.169714 0
3.25209 0.236575 0
3.25234 0.302905 0
3.25249 0.368829 0
3.25256 0.434482 0
3.25259 0.5 0
3.25256 0.565518 0
3.25249 0.631171 0
3.25234 0.697095 0
3.25209 0.763425 0
3.25171 0.830286 0
3.25115 0.897765 0
3.25041 0.965832 0
3.41687 0.0336075 0
3.41725 0.10076 0
3.41758 0.167751 0
3.41785 0.234537 0
3.41805 0.301115 0
3.41819 0.367517 0
3.41827 0.433791 0
3.41829 0.5 0
3.41827 0.566209 0
3.41819 0.632483 0
3.41805 0.698885 0
3.41785 0.765463 0
3.41758 0.832249 0
3.41725 0.89924 0
3.41687 0.966392 0
3.58344 0.0334298 0
3.58366 0.10027 0
3.58385 0.16706 0
3.58402 0.233778 0
3.58415 0.300419 0
3.58425 0.36699 0
3.58431 0.433509 0
3.58433 0.5 0
3.58431 0.566491 0
3.58425 0.63301 0
3.58415 0.699581 0
3.58402 0.766222 0
3.58385 0.83294 0
3.58366 0.89973 0
3.58344 0.96657 0
3.75006 0.0333682 0
3.75019 0.100098 0
3.7503 0.16681 0
3.75041 0.233497 0
3.75049 0.300156 0
3.75055 0.366788 0
3.75058 0.433399 0
3.7506 0.5 0
3.75058 0.566601 0
3.75055 0.633212 0
3.75049 0.699844 0
3.75041 0.766503 0
3.7503 0.83319 0
3.75019 0.899902 0
3.75006 0.966632 0
3.9167 0.0333461 0
3.91678 0.100036 0
3.91685 0.166719 0
3.91691 0.233394 0
3.91696 0.300058 0
3.91699 0.366712 0
3.91702 0.433358 0
3.91702 0.5 0
3.91702 0.566642 0
3.91699 0.633288 0
3.91696 0.699942 0
3.91691 0.766606 0
3.91685 0.833281 0
3.91678 0.899964 0
3.9167 0.966654 0
4.08336 0.033338 0
4.0834 0.100013 0
4.08344 0.166686 0
4.08348 0.233356 0
4.08351 0.300021 0
4.08353 0.366683 0
4.08354 0.433342 0
4.08355 0.5 0
4.08354 0.566658 0
4.08353 0.633317 0
4.08351 0.699979 0
4.08348 0.766644 0
4.08344 0.833314 0
4.0834 0.899987 0
4.08336 0.966662 0
4.25001 0.0333351 0
4.25004 0.100005 0
4.25006 0.166674 0
4.25008 0.233342 0
4.2501 0.300008 0
4.25012 0.366673 0
4.25012 0.433337 0
4.25013 0.5 0
4.25012 0.566663 0
4.25012 0.633327 0
4.2501 0.699992 0
4.25008 0.766658 0
4.25006 0.833326 0
4.25004 0.899995 0
4.25001 0.966665 0
4.41667 0.033334 0
4.41669 0.100002 0
4.4167 0.166669 0
4.41672 0.233336 0
4.41673 0.300003 0
4.41673 0.366669 0
4.41674 0.433335 0
4.41674 0.5 0
4.41674 0.566665 0
4.41673 0.633331 0
4.41673 0.699997 0
4.41672 0.766664 0
4.4167 0.833331 0
4.41669 0.899998 0
4.41667 0.966666 0
4.58334 0.0333336 0
4.58335 0.100001 0
4.58335 0.166668 0
4.58336 0.233334 0
4.58337 0.300001 0
4.58337 0.366667 0
4.58337 0.433334 0
4.58338 0.5 0
4.58337 0.566666 0
4.58337 0.633333 0
4.58337 0.699999 0
4.58336 0.766666 0
4.58335 0.833332 0
4.58335 0.899999 0
4.58334 0.966666 0
4.75 0.0333334 0
4.75001 0.1 0
4.75001 0.166667 0
4.75001 0.233334 0
4.75002 0.3 0
4.75002 0.366667 0
4.75002 0.433333 0
4.75002 0.5 0
4.75002 0.566667 0
4.75002 0.633333 0
4.75002 0.7 0
4.75001 0.766666 0
4.75001 0.833333 0
4.75001 0.9 0
4.75 0.966667 0
4.91667 0.0333334 0
4.91667 0.1 0
4.91667 0.166667 0
4.91667 0.233333 0
4.91667 0.3 0
4.91667 0.366667 0
4.91667 0.433333 0
4.91667 0.5 0
4.91667 0.566667 0
4.91667 0.633333 0
4.91667 0.7 0
4.91667 0.766667 0
4.91667 0.833333 0
4.91667 0.9 0
4.91667 0.966667 0
POINT_DATA 450
SCALARS pressure float 1
LOOKUP_TABLE default
94484.3
94482.1
94478.7
94473.9
94469.2
94465
94462.2
94461.2
94462.1
94465
94469.2
94473.9
94478.6
94482
94484.2
94228.9
94225.3
94218
94208.3
94198.9
94189.9
94184.6
94182
94184.6
94189.8
94198.9
94208.2
94217.9
94225.2
94228.8
94541.4
94541.4
94538.6
94536
94533.2
94530.1
94529
94527.6
94529
94530.1
94533.2
94536
94538.6
94541.5
94541.4
94123
94126.7
94129.9
94135.2
94141
94144.6
94149.1
94148.6
94149
94144.6
94140.9
94135.1
94129.8
94126.6
94122.9
94574.1
94582.5
94593
94609
94624.7
94638.1
94648.3
94650.5
94648.3
94638.1
94624.8
94609.1
94593.1
94582.6
94574.2
93987.7
93999
94017.4
94041.2
94067.7
94087.7
94105.3
94107.6
94105.2
94087.6
94067.5
94040.9
94017.1
93998.7
93987.4
94641
94654.1
94676.2
94705.7
94736.4
94762.4
94781.7
94786.8
94781.7
94762.5
94736.5
94705.7
94676.2
94654.1
94641
93870.9
93877.1
93901
93919.6
93953.2
93968.9
93993
93990.3
93992.7
93968.4
93952.4
93918.6
93899.8
93875.8
93869.5
94814.3
94813.6
94829.3
94839.2
94861.3
94871.5
94887.5
94885.8
94887.4
94871.1
94861
94838.5
94828.9
94812.8
94813.7
93860.9
93801.9
93811.3
93750
93764.6
93721.5
93742
93712.9
93741
93719.8
93761.8
93746.7
93807
93797.3
93856
95262.6
95123.4
95092.5
94989.7
94965.2
94902
94901.2
94871.9
94900.8
94900.1
94964.3
94986.1
95091.1
95118.9
95260.5
94573.7
93812.3
93770.9
93352.5
93300.8
93101.5
93093.3
93022.2
93091.1
93098.2
93293.7
93344.9
93758.5
93798.5
94555.6
96114.2
95470.6
95056.5
94755.3
94605.9
94466.6
94424.1
94383.2
94423.6
94461
94605
94742.3
95056.6
95446.1
96115.5
89149.6
90223.8
89835.5
90520.2
90310.5
90737.7
90541.6
90814.3
90541.3
90742.4
90309.7
90532.5
89834.6
90250.6
89141.8
90218.9
91526.8
91415.8
92234.8
92071.1
92590.1
92360
92698.2
92356.6
92593.1
92060.4
92242.1
91396.8
91540.4
90183.2
87377.4
88854.3
88632
89615.1
89374
90029.7
89716.3
90160.2
89709.4
90026.3
89352.2
89605.1
88591.8
88829.4
87303
91776.2
92534.6
92301
92850.7
92626.2
93034.5
92777
93094.5
92771.4
93037.8
92607.7
92856.3
92264.8
92538
91712.8
93264.2
92739.4
92601.9
92411.9
92280.6
92275.5
92152.5
92242
92149.7
92292.3
92272
92449.9
92584.3
92811.4
93259.1
96903.3
95861.9
95667.4
95163.1
95004.7
94788.7
94711.7
94673.7
94718.2
94801.4
95026.6
95188.7
95710.9
95900.1
97002.9
93069.2
93132.6
93088.8
93093
93037.7
93038
92990.8
93014.3
92989.7
93039.3
93034.2
93093.9
93082.2
93129.9
93060.3
95185.3
95092.2
95031.8
94911.1
94847.6
94763.1
94734.2
94708.6
94736.5
94767.4
94854.4
94918.7
95042
95101.9
95198.1
93579
93573.2
93552.7
93531
93502.7
93483.3
93464.4
93462.8
93464.1
93483.2
93501.9
93530.6
93551.5
93572.6
93578.4
94665.3
94652.5
94631.7
94600.6
94576.2
94547.9
94536.3
94526.5
94536.7
94548.8
94577.4
94601.9
94633.3
94654
94666.9
93801.9
93801.1
93794.7
93788.1
93780.9
93773.6
93770.1
93767.4
93770.1
93773.6
93780.8
93788
93794.7
93801.2
93802
94399.3
94402.1
94402.5
94404.7
94407.5
94408.1
94411.2
94409.6
94411.2
94408.1
94407.5
94404.6
94402.3
94401.8
94398.9
93890.2
93897.4
93905.8
93919
93931.9
93942.8
93951.4
93953
93951.4
93942.8
93932
93919.1
93905.9
93897.5
93890.3
94257.5
94266.1
94277.8
94295.6
94313
94328.2
94339.4
94342.2
94339.3
94328.1
94312.8
94295.3
94277.4
94265.6
94256.8
93950.3
93958.4
93970.7
93988.4
94005.8
94021.5
94032.2
94035.6
94032.3
94021.6
94005.9
93988.6
93970.8
93958.6
93950.4
94224
94229.9
94239.4
94252.8
94265.9
94277.9
94285.9
94288.6
94285.8
94277.8
94265.7
94252.5
94239.1
94229.6
94223.6
94014.2
94016.8
94021.3
94027.4
94033.3
94038.7
94042.2
94043.5
94042.3
94038.8
94033.4
94027.6
94021.6
94017.2
94014.6
SCALARS density float 1
LOOKUP_TABLE default
1.21469
1.21468
1.21464
1.2146
1.21456
1.21452
1.21449
1.21448
1.21449
1.21452
1.21456
1.2146
1.21464
1.21468
1.21469
1.21233
1.2123
1.21223
1.21215
1.21206
1.21198
1.21193
1.2119
1.21193
1.21198
1.21206
1.21215
1.21223
1.2123
1.21233
1.2152
1.2152
1.21518
1.21515
1.21513
1.2151
1.21509
1.21508
1.21509
1.2151
1.21513
1.21516
1.21518
1.2152
1.2152
1.21136
1.2114
1.21143
1.21148
1.21153
1.21157
1.21161
1.2116
1.21161
1.21157
1.21153
1.21148
1.21143
1.2114
1.21136
1.2155
1.21558
1.21568
1.21582
1.21597
1.21609
1.21619
1.21621
1.21619
1.21609
1.21597
1.21583
1.21568
1.21558
1.2155
1.21013
1.21023
1.21041
1.21063
1.21087
1.21106
1.21122
1.21124
1.21122
1.21106
1.21087
1.21063
1.2104
1.21023
1.21013
1.2161
1.21622
1.21643
1.2167
1.21698
1.21722
1.2174
1.21744
1.2174
1.21722
1.21698
1.2167
1.21643
1.21622
1.2161
1.20911
1.20917
1.2094
1.20957
1.20988
1.21003
1.21025
1.21023
1.21025
1.21002
1.20987
1.20956
1.20939
1.20916
1.2091
1.21757
1.21756
1.21773
1.21783
1.21804
1.21814
1.21828
1.21827
1.21828
1.21813
1.21804
1.21783
1.21772
1.21756
1.21756
1.20938
1.20884
1.20887
1.20828
1.20839
1.20798
1.20817
1.2079
1.20816
1.20797
1.20836
1.20825
1.20883
1.2088
1.20933
1.2207
1.21964
1.21955
1.21876
1.21862
1.21809
1.21811
1.21785
1.21811
1.21808
1.21862
1.21873
1.21954
1.21961
1.22069
1.2187
1.21073
1.20984
1.20555
1.20486
1.20283
1.2027
1.20199
1.20268
1.2028
1.20478
1.20546
1.20971
1.2106
1.21853
1.2258
1.22099
1.21791
1.21578
1.21468
1.2136
1.21329
1.21296
1.21328
1.21356
1.21468
1.21569
1.21793
1.22073
1.2258
1.16456
1.17517
1.17125
1.1778
1.17584
1.17992
1.17808
1.18066
1.17808
1.17997
1.17584
1.17791
1.17123
1.17555
1.16513
1.17555
1.18825
1.18673
1.19427
1.1926
1.19741
1.19522
1.19837
1.19519
1.19745
1.1925
1.19433
1.18655
1.1886
1.17576
1.14724
1.16166
1.15953
1.16877
1.16653
1.17272
1.16982
1.17397
1.16976
1.17269
1.16632
1.16866
1.15918
1.16166
1.14706
1.18893
1.19652
1.19464
1.1997
1.19773
1.20147
1.19916
1.20204
1.19912
1.2015
1.19756
1.19973
1.19433
1.19681
1.18927
1.20202
1.19799
1.19703
1.19507
1.19386
1.19375
1.19269
1.19346
1.19267
1.19391
1.19378
1.19538
1.19689
1.19909
1.2033
1.23328
1.22566
1.22478
1.22042
1.21904
1.21713
1.2165
1.21615
1.21656
1.21724
1.21921
1.22058
1.2252
1.2265
1.23543
1.19935
1.20077
1.20111
1.20137
1.20089
1.20091
1.20052
1.20074
1.20052
1.20092
1.20082
1.20131
1.20113
1.20128
1.20035
1.21888
1.21873
1.21892
1.21811
1.21757
1.21682
1.21659
1.21638
1.21662
1.21685
1.21758
1.2181
1.21912
1.21939
1.22006
1.20428
1.20483
1.20531
1.20544
1.20523
1.20506
1.20492
1.20492
1.20492
1.20505
1.20517
1.20537
1.20544
1.2054
1.20528
1.2143
1.21473
1.2152
1.21526
1.21512
1.21486
1.21478
1.2147
1.21478
1.21485
1.21506
1.21522
1.21537
1.21534
1.21529
1.20644
1.20693
1.20749
1.2078
1.20783
1.20777
1.20775
1.20774
1.20775
1.20774
1.20776
1.20775
1.20767
1.20753
1.20738
1.21194
1.21243
1.21303
1.21343
1.21358
1.21359
1.21362
1.21362
1.21362
1.21356
1.2135
1.2134
1.21323
1.21303
1.21285
1.20734
1.20785
1.20849
1.20901
1.20927
1.20938
1.20946
1.20948
1.20945
1.20934
1.20919
1.20899
1.20872
1.20845
1.20824
1.21063
1.21112
1.21177
1.21233
1.21264
1.2128
1.2129
1.21292
1.21289
1.21275
1.21256
1.21231
1.212
1.21171
1.2115
1.20811
1.20857
1.20922
1.20979
1.21012
1.21029
1.21038
1.21041
1.21037
1.21024
1.21005
1.20979
1.20947
1.20918
1.20898
1.20998
1.2104
1.211
1.21152
1.21181
1.21196
1.21202
1.21204
1.212
1.2119
1.21174
1.21153
1.21125
1.211
1.21082
1.20956
1.20993
1.21047
1.21092
1.21116
1.21124
1.21126
1.21126
1.21124
1.21118
1.21109
1.21094
1.21074
1.21053
1.2104
SCALARS u-velocity float 1
LOOKUP_TABLE default
99.5685
99.5749
99.5838
99.5968
99.6089
99.6204
99.6276
99.6306
99.6279
99.6212
99.61
99.5982
99.5854
99.5766
99.5704
98.6874
98.6959
98.7112
98.7317
98.7522
98.7712
98.7832
98.7882
98.7834
98.7716
98.7528
98.7324
98.712
98.6968
98.6884
99.6675
99.6741
99.6871
99.7039
99.7192
99.7349
99.7426
99.7481
99.7431
99.7358
99.7206
99.7058
99.6893
99.6765
99.6701
98.6004
98.5983
98.5993
98.5999
98.6021
98.6049
98.6061
98.6077
98.6062
98.6052
98.6024
98.6003
98.5997
98.5987
98.6007
99.8573
99.8617
99.8672
99.8746
99.8748
99.8805
99.877
99.8823
99.878
99.8824
99.8776
99.8782
99.8716
99.8667
99.8627
98.4731
98.4535
98.4279
98.4002
98.3771
98.3599
98.3475
98.3453
98.3477
98.3605
98.3777
98.401
98.4282
98.4535
98.4726
100.028
100.063
100.087
100.123
100.125
100.147
100.137
100.152
100.139
100.151
100.131
100.132
100.097
100.076
100.042
98.2385
98.1805
98.1241
98.0948
98.0733
98.0725
98.0638
98.0729
98.0649
98.0752
98.0763
98.0992
98.1266
98.181
98.2356
99.8338
100.116
100.256
100.499
100.587
100.739
100.754
100.814
100.759
100.748
100.601
100.516
100.28
100.148
99.8762
97.4675
97.3555
97.4632
97.6634
97.8012
98.0136
98.0929
98.1827
98.0984
98.0264
97.8144
97.6865
97.4819
97.369
97.4506
97.8071
99.664
100.013
101.225
101.724
102.274
102.461
102.595
102.47
102.29
101.755
101.258
100.057
99.7234
97.9464
89.5832
94.5864
96.4142
98.2299
99.2593
100.416
100.838
101.152
100.854
100.454
99.3001
98.302
96.4912
94.7393
89.5041
89.9643
94.181
101.724
104.032
106.551
107.017
108.069
107.821
108.085
107.049
106.606
104.125
101.853
94.25
90.2448
123.778
120.278
120.872
119.449
119.772
118.307
118.713
117.851
118.714
118.281
119.779
119.377
120.82
120.331
124.951
134.827
130.576
127.568
124.98
123.938
122.176
121.992
121.217
122.009
122.194
123.985
124.98
127.639
131.037
135.997
137.012
133.269
130.03
127.585
126.381
124.924
124.549
123.993
124.58
124.977
126.469
127.678
130.27
133.902
138.158
117.904
120.327
118.205
118.468
117.432
117.536
116.806
117.047
116.827
117.537
117.478
118.418
118.34
120.862
120.152
89.3336
101.721
102.677
106.314
106.575
108.68
108.294
109.241
108.261
108.61
106.43
106.024
102.39
102.318
92.1854
79.2661
90.7076
95.6855
99.1481
100.368
102.149
102.315
102.974
102.272
102.092
100.15
98.8769
95.4645
91.7666
81.685
96.083
98.7488
101.999
103.015
103.468
103.981
104.067
104.306
104.064
103.965
103.353
102.85
102.136
100.024
98.6097
91.123
93.8678
97.0084
98.587
99.1693
99.7199
99.8881
100.109
99.8796
99.6797
99.008
98.397
97.1965
95.1739
93.5337
95.9498
97.9956
100.562
101.805
102.21
102.385
102.491
102.568
102.496
102.352
102.074
101.673
100.877
99.3481
98.2723
93.4931
95.4478
97.8832
99.28
99.7527
99.9271
100.02
100.091
100.019
99.8754
99.5967
99.1591
98.2533
96.8244
95.7628
95.6713
97.4405
99.6785
101.053
101.534
101.64
101.695
101.729
101.692
101.58
101.379
100.966
100.107
98.8213
97.8616
94.445
96.115
98.2655
99.6846
100.22
100.33
100.362
100.385
100.352
100.254
100.058
99.6219
98.7398
97.5099
96.5955
95.5284
97.085
99.1291
100.549
101.122
101.232
101.242
101.249
101.225
101.144
100.96
100.514
99.6397
98.4744
97.618
94.979
96.4563
98.4335
99.8714
100.492
100.62
100.619
100.614
100.593
100.52
100.33
99.8609
98.9788
97.8505
97.033
95.4642
96.8642
98.7713
100.214
100.878
101.029
101.023
101.008
100.988
100.918
100.718
100.228
99.3432
98.2515
97.4721
95.312
96.6514
98.5067
99.9616
100.671
100.851
100.846
100.824
100.802
100.73
100.514
99.9981
99.1039
98.0367
97.286
95.4268
96.7113
98.5184
99.98
100.731
100.945
100.947
100.921
100.895
100.816
100.579
100.038
99.1364
98.0902
97.3652
SCALARS v-velocity float 1
LOOKUP_TABLE default
-0.000983791
-0.00175459
-0.00337703
-0.00320834
-0.00353029
-0.00244803
-0.00155224
-0.000135942
0.00128609
0.00219693
0.00330443
0.00301785
0.0032306
0.00166287
0.000952255
0.0133241
0.0350119
0.0516125
0.0595605
0.0562458
0.0446382
0.0243391
0.000604225
-0.0231577
-0.04353
-0.0552587
-0.0587385
-0.0509891
-0.0346278
-0.013188
0.0221235
0.0578255
0.0867824
0.09968
0.0952219
0.0750276
0.0408298
0.000113069
-0.0406023
-0.0748314
-0.0950557
-0.099564
-0.0867095
-0.0577905
-0.0221128
0.0311328
0.0777178
0.118842
0.133163
0.128661
0.100006
0.0556327
0.00156223
-0.0525811
-0.0971305
-0.126088
-0.130999
-0.117177
-0.0766818
-0.030761
0.0250513
0.0638935
0.100328
0.113996
0.112269
0.087405
0.0486586
0.00026041
-0.0481113
-0.0869794
-0.111931
-0.113826
-0.100304
-0.0639214
-0.0250992
0.0356317
0.0785849
0.124366
0.130927
0.129359
0.0971469
0.0561244
0.00360462
-0.0491199
-0.0904541
-0.123326
-0.12573
-0.120216
-0.0759223
-0.0346254
0.00179979
0.0063755
0.0247826
0.0295069
0.038037
0.0286258
0.0189485
0.000911337
-0.0169303
-0.0271847
-0.0368778
-0.0290451
-0.0250715
-0.00682997
-0.002292
0.0671631
0.100096
0.151529
0.14011
0.1329
0.0939783
0.0550771
0.00831235
-0.0391579
-0.0782752
-0.118681
-0.127393
-0.140647
-0.0924687
-0.0637718
-0.00487423
0.0404894
0.0900623
0.0914444
0.105218
0.0763745
0.0501141
0.00473961
-0.0393198
-0.0685294
-0.0980605
-0.0874592
-0.0897
-0.0425864
0.000829699
0.348027
0.432605
0.581671
0.602182
0.481274
0.371266
0.186839
0.018114
-0.153545
-0.336321
-0.450096
-0.572824
-0.555922
-0.410246
-0.331773
1.0828
1.63776
1.89923
1.7744
1.54463
1.09633
0.58859
0.0209844
-0.538794
-1.05844
-1.50393
-1.74779
-1.87601
-1.63485
-1.11376
-0.343643
3.28122
2.39564
2.94348
1.9062
1.60436
0.715196
0.0350425
-0.65622
-1.5372
-1.85375
-2.88607
-2.36699
-3.26036
0.381379
23.0688
19.8892
15.9128
12.8343
8.98255
6.07576
2.9236
0.0661275
-2.76373
-5.94054
-8.80171
-12.6978
-15.688
-19.7167
-22.8398
25.1077
16.037
13.1295
8.65365
6.58871
3.81734
2.03281
0.0748646
-1.89251
-3.66453
-6.44871
-8.48472
-12.9624
-15.8389
-25.2771
11.4014
7.0866
6.73412
4.13799
3.70631
1.98733
1.20629
0.0682415
-1.12261
-1.85666
-3.65013
-4.01876
-6.73277
-7.05066
-11.6333
-8.2399
-8.58415
-4.71998
-4.83721
-2.41422
-2.12491
-0.695851
0.125712
0.874331
2.37839
2.59715
5.1023
4.92219
8.87213
8.47044
-20.8734
-18.1567
-12.1725
-10.1215
-6.26499
-4.43518
-1.86143
0.15541
2.08346
4.76934
6.52029
10.5355
12.5469
18.8217
21.5486
-23.3367
-18.4396
-14.4841
-10.9282
-7.89979
-5.01593
-2.44122
0.187666
2.63657
5.41464
8.09808
11.4147
14.7233
19.2052
23.9194
-2.47978
-0.511969
-2.25631
-1.35329
-1.77933
-0.933578
-0.633137
0.0435456
0.655428
1.00653
1.78113
1.40074
2.22636
0.44624
2.34068
-1.91005
-2.21632
-2.70044
-2.20618
-2.04319
-1.28843
-0.709191
0.0558063
0.774028
1.38933
2.1023
2.29169
2.73666
2.17471
1.88735
-0.187571
-0.240238
-0.328838
-0.153756
-0.289864
-0.129879
-0.11121
0.00997101
0.11516
0.145873
0.299912
0.174626
0.328502
0.194194
0.161576
-0.152973
-0.301065
-0.33921
-0.232805
-0.267911
-0.161263
-0.101267
0.0113599
0.114943
0.181777
0.287421
0.253762
0.334456
0.256158
0.128915
-0.00460574
-0.01416
0.0586749
0.134936
0.102311
0.0873792
0.0373165
0.00184568
-0.0362567
-0.0810678
-0.0904105
-0.12159
-0.0647049
-0.0176668
-0.013659
-0.00524046
-0.00480679
0.0663189
0.133841
0.122854
0.0955511
0.0453698
0.000139613
-0.0458392
-0.0913432
-0.113482
-0.126932
-0.0797482
-0.0287809
-0.0130161
0.0129616
0.042225
0.122735
0.181185
0.176483
0.132196
0.0671292
-0.00047066
-0.0673596
-0.127407
-0.166081
-0.173604
-0.132663
-0.0676382
-0.0269333
0.00469058
0.0228596
0.0881239
0.138411
0.142426
0.105587
0.0529624
-0.00229139
-0.0561922
-0.103733
-0.135971
-0.136492
-0.10279
-0.0493379
-0.0183645
0.00103064
0.0120246
0.0632724
0.103201
0.110823
0.0812425
0.0409316
-0.00125848
-0.0416639
-0.0767886
-0.102328
-0.0995617
-0.0744468
-0.0331102
-0.0119383
-0.0102969
-0.0181593
0.0133374
0.0443827
0.0564417
0.0399966
0.0183143
-0.00279919
-0.0219005
-0.0384769
-0.0517067
-0.0451171
-0.0275393
-0.00348053
-0.000350475
-0.0144987
-0.0299204
-0.0109248
0.013462
0.026564
0.0181982
0.00717638
-0.00195298
-0.00892579
-0.0149476
-0.0206866
-0.0131539
-0.000903183
0.0117451
0.00559288
-0.0191
-0.0415865
-0.0312293
-0.00880493
0.00542675
0.00347481
-0.00113285
-0.00278343
-0.00222122
-0.00198701
-0.00192023
0.00628295
0.0171199
0.0223584
0.00997697
SCALARS Mach float 1
LOOKUP_TABLE default
30.0424
30.0463
30.0518
30.0599
30.0674
30.0745
30.079
30.0809
30.0792
30.075
30.0681
30.0607
30.0528
30.0474
30.0435
29.5242
29.5294
29.5389
29.5517
29.5644
29.5761
29.5836
29.5867
29.5837
29.5764
29.5647
29.5521
29.5395
29.53
29.5248
30.0993
30.1033
30.1113
30.1216
30.131
30.1406
30.1453
30.1487
30.1456
30.1412
30.1318
30.1227
30.1126
30.1048
30.1009
29.4769
29.4755
29.476
29.4762
29.4772
29.4788
29.4793
29.4802
29.4793
29.4789
29.4775
29.4765
29.4763
29.4758
29.4772
30.2126
30.2148
30.2177
30.2215
30.2209
30.2237
30.2211
30.2242
30.2217
30.2249
30.2226
30.2237
30.2204
30.2179
30.2158
29.4071
29.3949
29.3788
29.3613
29.3463
29.3352
29.327
29.3255
29.3271
29.3355
29.3467
29.3617
29.379
29.3949
29.4068
30.3124
30.3334
30.3468
30.3677
30.3672
30.3792
30.3721
30.3814
30.3735
30.3817
30.3711
30.3726
30.3531
30.341
30.321
29.273
29.2383
29.2037
29.1854
29.1712
29.17
29.1638
29.1693
29.1645
29.1716
29.173
29.1881
29.2053
29.2386
29.2714
30.1857
30.3569
30.4412
30.5888
30.6412
30.7334
30.7418
30.7789
30.7447
30.7388
30.6499
30.5992
30.4558
30.3764
30.2114
28.8204
28.757
28.8201
28.941
29.0214
29.1492
29.1951
29.2497
29.1983
29.1567
29.0293
28.9547
28.8313
28.7651
28.8106
28.945
30.0679
30.285
31.029
31.3356
31.6753
31.7888
31.8728
31.794
31.6847
31.354
31.0493
30.3117
30.1039
29.028
24.3477
27.1963
28.2368
29.332
29.9339
30.6393
30.8906
31.0846
30.8999
30.662
29.9582
29.3742
28.2819
27.2843
24.3054
26.0345
28.0048
32.0702
33.2629
34.6256
34.8049
35.4074
35.2222
35.4153
34.8208
34.6518
33.3119
32.1282
28.024
26.1551
48.7257
44.9106
45.1112
43.7256
43.8796
42.7011
42.976
42.3239
42.9746
42.679
43.8793
43.664
45.0594
44.9311
49.6569
55.854
52.074
49.6929
47.555
46.7649
45.3794
45.2503
44.6499
45.2625
45.3919
46.7998
47.5516
49.7491
52.4436
56.8533
57.6962
54.4995
51.7535
49.7543
48.7865
47.6164
47.3425
46.8874
47.3676
47.6609
48.8589
49.8352
51.9545
55.0396
58.6939
43.612
45.0037
42.9341
42.9475
42.03
42.0174
41.4661
41.6061
41.4844
42.0272
42.0734
42.937
43.0626
45.4748
45.3493
25.8663
32.4635
32.6723
34.7145
34.7177
35.9808
35.6762
36.2787
35.6573
35.9462
34.6334
34.5581
32.5158
32.9236
27.5359
18.9626
24.8656
27.7023
29.7582
30.5071
31.6033
31.7091
32.1199
31.6823
31.5676
30.3731
29.5939
27.5727
25.453
20.1416
28.0201
29.6072
31.6064
32.2345
32.5193
32.8348
32.8888
33.0372
32.8872
32.8257
32.4471
32.1313
31.6931
30.383
29.5262
25.1124
26.6596
28.4848
29.428
29.7802
30.1157
30.2192
30.3542
30.2141
30.0911
29.6825
29.3135
28.5961
27.4127
26.4697
27.9126
29.1233
30.6782
31.4465
31.6992
31.8087
31.876
31.9241
31.8789
31.7883
31.6143
31.364
30.8724
29.9399
29.2924
26.4583
27.5831
29.0174
29.8572
30.1442
30.251
30.308
30.3516
30.3077
30.2195
30.0491
29.7837
29.239
28.3913
27.7697
27.7426
28.7841
30.1295
30.971
31.2684
31.3341
31.3682
31.3896
31.3665
31.2965
31.1723
30.9175
30.3915
29.613
29.0387
27.0115
27.9805
29.2539
30.1096
30.4352
30.502
30.5213
30.5353
30.5153
30.4556
30.3361
30.0713
29.5394
28.8058
28.2664
27.657
28.5706
29.793
30.657
31.0085
31.0755
31.0817
31.0856
31.071
31.0213
30.9084
30.6351
30.1035
29.4015
28.891
27.3236
28.1847
29.3581
30.2262
30.6042
30.6816
30.6804
30.6774
30.6644
30.6201
30.5045
30.2197
29.6871
29.0125
28.5286
27.6198
28.4401
29.577
30.4518
30.8576
30.9496
30.9455
30.9364
30.9239
30.8812
30.759
30.4601
29.9236
29.2679
28.8042
27.5131
28.2958
29.3984
30.2775
30.7101
30.8201
30.8165
30.8029
30.7895
30.7456
30.6136
30.2998
29.7591
29.12
28.6746
27.6054
28.3576
29.433
30.3174
30.7769
30.9078
30.9089
30.8923
30.8764
30.8278
30.6832
30.3531
29.8067
29.1791
28.7482
