# vtk DataFile Version 3.0
Structured Grid Example
ASCII
DATASET STRUCTURED_GRID
DIMENSIONS 15 30 1
POINTS 450 FLOAT
0.0833327 0.0333334 0
0.0833313 0.1 0
0.0833301 0.166667 0
0.083329 0.233333 0
0.0833281 0.3 0
0.0833274 0.366667 0
0.083327 0.433333 0
0.0833268 0.5 0
0.083327 0.566667 0
0.0833274 0.633333 0
0.0833281 0.7 0
0.083329 0.766667 0
0.0833301 0.833333 0
0.0833313 0.9 0
0.0833327 0.966667 0
0.249998 0.0333334 0
0.249993 0.1 0
0.249989 0.166667 0
0.249986 0.233334 0
0.249983 0.3 0
0.24998 0.366667 0
0.249979 0.433333 0
0.249979 0.5 0
0.249979 0.566667 0
0.24998 0.633333 0
0.249983 0.7 0
0.249986 0.766666 0
0.249989 0.833333 0
0.249993 0.9 0
0.249998 0.966667 0
0.416662 0.0333336 0
0.416654 0.100001 0
0.416646 0.166668 0
0.416639 0.233334 0
0.416633 0.300001 0
0.416628 0.366667 0
0.416626 0.433334 0
0.416625 0.5 0
0.416626 0.566666 0
0.416628 0.633333 0
0.416633 0.699999 0
0.416639 0.766666 0
0.416646 0.833332 0
0.416654 0.899999 0
0.416662 0.966666 0
0.583326 0.033334 0
0.58331 0.100002 0
0.583296 0.166669 0
0.583284 0.233336 0
0.583273 0.300003 0
0.583266 0.366669 0
0.583261 0.433335 0
0.583259 0.5 0
0.583261 0.566665 0
0.583266 0.633331 0
0.583273 0.699997 0
0.583284 0.766664 0
0.583296 0.833331 0
0.58331 0.899998 0
0.583326 0.966666 0
0.749987 0.0333351 0
0.749961 0.100005 0
0.749937 0.166674 0
0.749915 0.233342 0
0.749898 0.300008 0
0.749884 0.366673 0
0.749876 0.433337 0
0.749874 0.5 0
0.749876 0.566663 0
0.749884 0.633327 0
0.749898 0.699992 0
0.749915 0.766658 0
0.749937 0.833326 0
0.749961 0.899995 0
0.749987 0.966665 0
0.916644 0.033338 0
0.916601 0.100013 0
0.91656 0.166686 0
0.916524 0.233356 0
0.916494 0.300021 0
0.916472 0.366683 0
0.916458 0.433342 0
0.916454 0.5 0
0.916458 0.566658 0
0.916472 0.633317 0
0.916494 0.699979 0
0.916524 0.766644 0
0.91656 0.833314 0
0.916601 0.899987 0
0.916644 0.966662 0
1.0833 0.0333461 0
1.08322 0.100036 0
1.08315 0.166719 0
1.08309 0.233394 0
1.08304 0.300058 0
1.08301 0.366712 0
1.08298 0.433358 0
1.08298 0.5 0
1.08298 0.566642 0
1.08301 0.633288 0
1.08304 0.699942 0
1.08309 0.766606 0
1.08315 0.833281 0
1.08322 0.899964 0
1.0833 0.966654 0
1.24994 0.0333682 0
1.24981 0.100098 0
1.2497 0.16681 0
1.24959 0.233497 0
1.24951 0.300156 0
1.24945 0.366788 0
1.24942 0.433399 0
1.2494 0.5 0
1.24942 0.566601 0
1.24945 0.633212 0
1.24951 0.699844 0
1.24959 0.766503 0
1.2497 0.83319 0
1.24981 0.899902 0
1.24994 0.966632 0
1.41656 0.0334298 0
1.41634 0.10027 0
1.41615 0.16706 0
1.41598 0.233778 0
1.41585 0.300419 0
1.41575 0.36699 0
1.41569 0.433509 0
1.41567 0.5 0
1.41569 0.566491 0
1.41575 0.63301 0
1.41585 0.699581 0
1.41598 0.766222 0
1.41615 0.83294 0
1.41634 0.89973 0
1.41656 0.96657 0
1.58313 0.0336075 0
1.58275 0.10076 0
1.58242 0.167751 0
1.58215 0.234537 0
1.58195 0.301115 0
1.58181 0.367517 0
1.58173 0.433791 0
1.58171 0.5 0
1.58173 0.566209 0
1.58181 0.632483 0
1.58195 0.698885 0
1.58215 0.765463 0
1.58242 0.832249 0
1.58275 0.89924 0
1.58313 0.966392 0
1.74959 0.0341677 0
1.74885 0.102235 0
1.74829 0.169714 0
1.74791 0.236575 0
1.74766 0.302905 0
1.74751 0.368829 0
1.74744 0.434482 0
1.74741 0.5 0
1.74744 0.565518 0
1.74751 0.631171 0
1.74766 0.697095 0
1.74791 0.763425 0
1.74829 0.830286 0
1.74885 0.897765 0
1.74959 0.965832 0
1.91555 0.0363295 0
1.91388 0.107253 0
1.91312 0.175401 0
1.91283 0.241837 0
1.91276 0.307169 0
1.91277 0.371793 0
1.9128 0.435995 0
1.91281 0.5 0
1.9128 0.564005 0
1.91277 0.628207 0
1.91276 0.692831 0
1.91283 0.758163 0
1.91312 0.824599 0
1.91388 0.892747 0
1.91555 0.963671 0
2.07838 0.0591504 0
2.07417 0.125973 0
2.07554 0.190391 0
2.07663 0.253364 0
2.07743 0.315525 0
2.07798 0.377223 0
2.07829 0.438667 0
2.0784 0.5 0
2.07829 0.561333 0
2.07798 0.622777 0
2.07743 0.684475 0
2.07663 0.746636 0
2.07554 0.809609 0
2.07417 0.874027 0
2.07838 0.94085 0
2.24384 0.096456 0
2.23911 0.153168 0
2.24152 0.210396 0
2.24318 0.267878 0
2.24431 0.325632 0
2.24503 0.383617 0
2.24544 0.441767 0
2.24557 0.5 0
2.24544 0.558233 0
2.24503 0.616383 0
2.24431 0.674368 0
2.24318 0.732122 0
2.24152 0.789604 0
2.23911 0.846832 0
2.24384 0.903544 0
2.41462 0.118677 0
2.41292 0.170231 0
2.41356 0.223198 0
2.41406 0.277268 0
2.41444 0.332207 0
2.4147 0.387788 0
2.41485 0.44379 0
2.4149 0.5 0
2.41485 0.55621 0
2.4147 0.612212 0
2.41444 0.667793 0
2.41406 0.722732 0
2.41356 0.776802 0
2.41292 0.829769 0
2.41462 0.881323 0
2.58538 0.118677 0
2.58708 0.170231 0
2.58644 0.223198 0
2.58594 0.277268 0
2.58556 0.332207 0
2.5853 0.387788 0
2.58515 0.44379 0
2.5851 0.5 0
2.58515 0.55621 0
2.5853 0.612212 0
2.58556 0.667793 0
2.58594 0.722732 0
2.58644 0.776802 0
2.58708 0.829769 0
2.58538 0.881323 0
2.75616 0.096456 0
2.76089 0.153168 0
2.75848 0.210396 0
2.75682 0.267878 0
2.75569 0.325632 0
2.75497 0.383617 0
2.75456 0.441767 0
2.75443 0.5 0
2.75456 0.558233 0
2.75497 0.616383 0
2.75569 0.674368 0
2.75682 0.732122 0
2.75848 0.789604 0
2.76089 0.846832 0
2.75616 0.903544 0
2.92162 0.0591504 0
2.92583 0.125973 0
2.92446 0.190391 0
2.92337 0.253364 0
2.92257 0.315525 0
2.92202 0.377223 0
2.92171 0.438667 0
2.9216 0.5 0
2.92171 0.561333 0
2.92202 0.622777 0
2.92257 0.684475 0
2.92337 0.746636 0
2.92446 0.809609 0
2.92583 0.874027 0
2.92162 0.94085 0
3.08445 0.0363295 0
3.08612 0.107253 0
3.08688 0.175401 0
3.08717 0.241837 0
3.08724 0.307169 0
3.08723 0.371793 0
3.0872 0.435995 0
3.08719 0.5 0
3.0872 0.564005 0
3.08723 0.628207 0
3.08724 0.692831 0
3.08717 0.758163 0
3.08688 0.824599 0
3.08612 0.892747 0
3.08445 0.963671 0
3.25041 0.0341677 0
3.25115 0.102235 0
3.25171 0.169714 0
3.25209 0.236575 0
3.25234 0.302905 0
3.25249 0.368829 0
3.25256 0.434482 0
3.25259 0.5 0
3.25256 0.565518 0
3.25249 0.631171 0
3.25234 0.697095 0
3.25209 0.763425 0
3.25171 0.830286 0
3.25115 0.897765 0
3.25041 0.965832 0
3.41687 0.0336075 0
3.41725 0.10076 0
3.41758 0.167751 0
3.41785 0.234537 0
3.41805 0.301115 0
3.41819 0.367517 0
3.41827 0.433791 0
3.41829 0.5 0
3.41827 0.566209 0
3.41819 0.632483 0
3.41805 0.698885 0
3.41785 0.765463 0
3.41758 0.832249 0
3.41725 0.89924 0
3.41687 0.966392 0
3.58344 0.0334298 0
3.58366 0.10027 0
3.58385 0.16706 0
3.58402 0.233778 0
3.58415 0.300419 0
3.58425 0.36699 0
3.58431 0.433509 0
3.58433 0.5 0
3.58431 0.566491 0
3.58425 0.63301 0
3.58415 0.699581 0
3.58402 0.766222 0
3.58385 0.83294 0
3.58366 0.89973 0
3.58344 0.96657 0
3.75006 0.0333682 0
3.75019 0.100098 0
3.7503 0.16681 0
3.75041 0.233497 0
3.75049 0.300156 0
3.75055 0.366788 0
3.75058 0.433399 0
3.7506 0.5 0
3.75058 0.566601 0
3.75055 0.633212 0
3.75049 0.699844 0
3.75041 0.766503 0
3.7503 0.83319 0
3.75019 0.899902 0
3.75006 0.966632 0
3.9167 0.0333461 0
3.91678 0.100036 0
3.91685 0.166719 0
3.91691 0.233394 0
3.91696 0.300058 0
3.91699 0.366712 0
3.91702 0.433358 0
3.91702 0.5 0
3.91702 0.566642 0
3.91699 0.633288 0
3.91696 0.699942 0
3.91691 0.766606 0
3.91685 0.833281 0
3.91678 0.899964 0
3.9167 0.966654 0
4.08336 0.033338 0
4.0834 0.100013 0
4.08344 0.166686 0
4.08348 0.233356 0
4.08351 0.300021 0
4.08353 0.366683 0
4.08354 0.433342 0
4.08355 0.5 0
4.08354 0.566658 0
4.08353 0.633317 0
4.08351 0.699979 0
4.08348 0.766644 0
4.08344 0.833314 0
4.0834 0.899987 0
4.08336 0.966662 0
4.25001 0.0333351 0
4.25004 0.100005 0
4.25006 0.166674 0
4.25008 0.233342 0
4.2501 0.300008 0
4.25012 0.366673 0
4.25012 0.433337 0
4.25013 0.5 0
4.25012 0.566663 0
4.25012 0.633327 0
4.2501 0.699992 0
4.25008 0.766658 0
4.25006 0.833326 0
4.25004 0.899995 0
4.25001 0.966665 0
4.41667 0.033334 0
4.41669 0.100002 0
4.4167 0.166669 0
4.41672 0.233336 0
4.41673 0.300003 0
4.41673 0.366669 0
4.41674 0.433335 0
4.41674 0.5 0
4.41674 0.566665 0
4.41673 0.633331 0
4.41673 0.699997 0
4.41672 0.766664 0
4.4167 0.833331 0
4.41669 0.899998 0
4.41667 0.966666 0
4.58334 0.0333336 0
4.58335 0.100001 0
4.58335 0.166668 0
4.58336 0.233334 0
4.58337 0.300001 0
4.58337 0.366667 0
4.58337 0.433334 0
4.58338 0.5 0
4.58337 0.566666 0
4.58337 0.633333 0
4.58337 0.699999 0
4.58336 0.766666 0
4.58335 0.833332 0
4.58335 0.899999 0
4.58334 0.966666 0
4.75 0.0333334 0
4.75001 0.1 0
4.75001 0.166667 0
4.75001 0.233334 0
4.75002 0.3 0
4.75002 0.366667 0
4.75002 0.433333 0
4.75002 0.5 0
4.75002 0.566667 0
4.75002 0.633333 0
4.75002 0.7 0
4.75001 0.766666 0
4.75001 0.833333 0
4.75001 0.9 0
4.75 0.966667 0
4.91667 0.0333334 0
4.91667 0.1 0
4.91667 0.166667 0
4.91667 0.233333 0
4.91667 0.3 0
4.91667 0.366667 0
4.91667 0.433333 0
4.91667 0.5 0
4.91667 0.566667 0
4.91667 0.633333 0
4.91667 0.7 0
4.91667 0.766667 0
4.91667 0.833333 0
4.91667 0.9 0
4.91667 0.966667 0
POINT_DATA 450
SCALARS pressure float 1
LOOKUP_TABLE default
94472.6
94472.7
94472.7
94472.8
94472.9
94473
94473
94473
94473
94473
94472.9
94472.8
94472.7
94472.6
94472.6
94205.4
94205.5
94205.8
94206.1
94206.5
94206.6
94207
94206.9
94206.9
94206.6
94206.4
94206
94205.7
94205.4
94205.3
94534.3
94534.4
94534.7
94535
94535.3
94535.6
94535.7
94535.8
94535.7
94535.5
94535.2
94534.9
94534.6
94534.4
94534.3
94136.7
94136.4
94136.7
94136.3
94136.8
94136.2
94136.8
94136.2
94136.7
94136.1
94136.6
94136.1
94136.5
94136.2
94136.4
94613.5
94613.3
94613.2
94612.8
94612.6
94612.2
94612.1
94611.9
94612.1
94612.1
94612.5
94612.7
94613.1
94613.2
94613.4
94051.9
94050.4
94050.4
94047.3
94047.6
94044.1
94045.4
94042.8
94045.3
94043.8
94047.2
94046.7
94049.8
94049.7
94051.2
94719.8
94718.2
94717.1
94713.9
94712.5
94709.3
94709.1
94707.3
94709
94709.1
94712.3
94713.5
94716.8
94717.8
94719.4
93952.2
93944
93943.3
93928.1
93928.4
93913.5
93917.8
93907.5
93917.4
93912.8
93927.3
93926.6
93941.6
93942.1
93950.2
94882.4
94870.3
94864.6
94846
94840
94824
94823.8
94815.2
94823.6
94823.4
94839.4
94844.9
94863.7
94869
94881.2
93908.9
93842.6
93836.2
93755
93750
93688.2
93697.8
93663.4
93696.7
93686.3
93746.8
93751.3
93831.4
93837.4
93903.4
95282.7
95141
95102.2
94990.8
94958
94886.6
94881.8
94849.7
94881.3
94884.5
94956.7
94986.8
95100.3
95136
95280
94574.3
93813.4
93770.9
93352.7
93301.5
93102.3
93095.2
93023.5
93092.8
93098.8
93294.2
93344.7
93758.1
93799.1
94555.6
96101.7
95460.1
95050.9
94756
94614.1
94480.5
94442.9
94402.9
94442.3
94474.8
94612.9
94742.8
95050.6
95435.2
96102.5
89134.6
90212.4
89827.9
90519
90314.6
90747
90554.3
90828.1
90554
90751.7
90313.8
90531.2
89826.9
90239
89126.5
90209.4
91519
91409.7
92231.9
92070.5
92592.2
92363.5
92702.5
92360.1
92595.2
92059.8
92239.1
91390.6
91532.5
90173.7
87371.5
88849.1
88627.6
89612.4
89372.5
90029.7
89717
90161.3
89710.2
90026.2
89350.6
89602.3
88587.3
88824.1
87297.1
91766.1
92526.4
92295.1
92847.8
92625.8
93036.6
92780.5
93098.6
92774.9
93039.8
92607.3
92853.4
92258.8
92529.8
91702.6
93241.1
92723.3
92592.3
92411.5
92287.9
92289.4
92170.9
92261.7
92168.1
92306.2
92279.2
92449.5
92574.6
92795.4
93235.8
96861.4
95830.2
95649.5
95164.1
95023.3
94822.9
94756
94721.5
94762.6
94835.6
95045.3
95189.9
95693.1
95868.5
96961.3
93013.3
93087.7
93062.5
93091.9
93061.2
93083.6
93051
93079.6
93050
93085.1
93058
93093.1
93056.2
93085.3
93004.6
95122.9
95040.9
95000.6
94906.9
94870.2
94810.1
94796.9
94777.4
94799.3
94814.6
94877.2
94914.8
95011.1
95050.9
95135.9
93519.9
93523.3
93521.2
93523.7
93519.6
93522.7
93517.6
93522.1
93517.5
93522.8
93519.1
93523.7
93520.5
93523
93519.6
94622.2
94614.8
94607.4
94592.8
94585.2
94573.1
94570.5
94565.8
94571.1
94574.1
94586.7
94594.6
94609.3
94616.7
94624.1
93784.2
93784
93783.5
93782.7
93781.6
93780.9
93780.1
93780.3
93780.2
93781.1
93781.8
93783
93783.8
93784.6
93784.9
94410.1
94408.8
94407
94404
94402.1
94399.3
94398.6
94397.5
94398.7
94399.5
94402.3
94404.3
94407.2
94408.9
94410.1
93925.3
93925.1
93924.8
93924.1
93923.6
93922.9
93922.7
93922.4
93922.7
93923.1
93923.8
93924.4
93925.2
93925.6
93925.9
94305.3
94304.9
94304.3
94303.4
94302.8
94301.9
94301.6
94301.3
94301.6
94301.9
94302.7
94303.3
94304.2
94304.7
94305.1
93995.7
93995.6
93995.6
93995.5
93995.4
93995.2
93995.2
93995.2
93995.3
93995.4
93995.6
93995.8
93996
93996.1
93996.1
94256
94256
94255.9
94255.7
94255.6
94255.5
94255.4
94255.4
94255.4
94255.4
94255.6
94255.7
94255.8
94255.9
94255.9
94024.6
94024.8
94025.1
94025.4
94025.6
94025.8
94026
94026
94026.1
94026
94025.9
94025.8
94025.6
94025.4
94025.3
SCALARS density float 1
LOOKUP_TABLE default
1.21458
1.21459
1.21459
1.21459
1.21459
1.21459
1.21459
1.21459
1.21459
1.21459
1.21459
1.21459
1.21459
1.21459
1.21459
1.21212
1.21212
1.21212
1.21212
1.21213
1.21213
1.21213
1.21213
1.21213
1.21213
1.21213
1.21212
1.21212
1.21212
1.21212
1.21514
1.21514
1.21514
1.21514
1.21515
1.21515
1.21515
1.21515
1.21515
1.21515
1.21515
1.21515
1.21514
1.21514
1.21514
1.21149
1.21149
1.21149
1.21149
1.21149
1.21149
1.21149
1.21149
1.21149
1.21149
1.21149
1.21149
1.21149
1.21148
1.21149
1.21586
1.21586
1.21586
1.21586
1.21586
1.21586
1.21585
1.21585
1.21585
1.21586
1.21586
1.21586
1.21586
1.21586
1.21586
1.21072
1.21071
1.21071
1.21068
1.21069
1.21066
1.21067
1.21065
1.21067
1.21066
1.21068
1.21068
1.21071
1.2107
1.21072
1.21683
1.21681
1.2168
1.21677
1.21676
1.21673
1.21673
1.21671
1.21673
1.21673
1.21676
1.21677
1.2168
1.21681
1.21682
1.20986
1.20979
1.20979
1.20965
1.20965
1.20952
1.20956
1.20947
1.20956
1.20951
1.20964
1.20963
1.20977
1.20977
1.20984
1.21819
1.21808
1.21805
1.21789
1.21785
1.2177
1.2177
1.21762
1.2177
1.2177
1.21784
1.21788
1.21804
1.21807
1.21818
1.20982
1.20921
1.2091
1.20832
1.20826
1.20768
1.20776
1.20744
1.20775
1.20766
1.20823
1.20829
1.20906
1.20917
1.20977
1.22088
1.21981
1.21964
1.21877
1.21856
1.21795
1.21793
1.21764
1.21793
1.21793
1.21855
1.21874
1.21962
1.21976
1.22087
1.2187
1.21074
1.20984
1.20555
1.20486
1.20284
1.20272
1.20201
1.20269
1.20281
1.20479
1.20546
1.20971
1.2106
1.21853
1.22568
1.22089
1.21786
1.21579
1.21475
1.21373
1.21346
1.21314
1.21346
1.21369
1.21475
1.21569
1.21788
1.22063
1.22568
1.16443
1.17507
1.17118
1.17779
1.17588
1.18
1.1782
1.18078
1.1782
1.18005
1.17588
1.1779
1.17115
1.17545
1.16499
1.17547
1.18818
1.18667
1.19424
1.19259
1.19743
1.19525
1.19841
1.19522
1.19746
1.19249
1.1943
1.1865
1.18853
1.17567
1.14719
1.16161
1.15949
1.16874
1.16651
1.17272
1.16983
1.17398
1.16977
1.17269
1.1663
1.16863
1.15914
1.16161
1.147
1.18883
1.19645
1.19459
1.19968
1.19773
1.20148
1.1992
1.20207
1.19915
1.20151
1.19755
1.1997
1.19427
1.19673
1.18918
1.20181
1.19784
1.19694
1.19507
1.19393
1.19388
1.19286
1.19364
1.19284
1.19404
1.19385
1.19538
1.1968
1.19894
1.20309
1.2329
1.22537
1.22461
1.22043
1.21921
1.21745
1.21691
1.21659
1.21697
1.21756
1.21938
1.22059
1.22504
1.22621
1.23505
1.19883
1.20036
1.20087
1.20136
1.20111
1.20133
1.20108
1.20135
1.20107
1.20134
1.20104
1.2013
1.20089
1.20087
1.19984
1.21831
1.21826
1.21864
1.21807
1.21778
1.21725
1.21717
1.21701
1.2172
1.21728
1.21779
1.21807
1.21883
1.21893
1.21949
1.20374
1.20437
1.20502
1.20537
1.20539
1.20542
1.20541
1.20546
1.20541
1.20541
1.20533
1.20531
1.20515
1.20495
1.20474
1.2139
1.21439
1.21497
1.21519
1.2152
1.21509
1.21509
1.21506
1.2151
1.21508
1.21515
1.21515
1.21515
1.215
1.2149
1.20628
1.20677
1.20739
1.20775
1.20784
1.20784
1.20784
1.20786
1.20784
1.20781
1.20777
1.20771
1.20757
1.20738
1.20722
1.21204
1.21249
1.21307
1.21342
1.21353
1.21351
1.21351
1.21351
1.2135
1.21348
1.21345
1.21339
1.21328
1.21309
1.21296
1.20766
1.2081
1.20867
1.20905
1.20919
1.2092
1.2092
1.2092
1.20919
1.20916
1.20912
1.20904
1.20889
1.20871
1.20857
1.21107
1.21147
1.21202
1.2124
1.21255
1.21256
1.21255
1.21255
1.21254
1.21251
1.21247
1.21239
1.21225
1.21207
1.21194
1.20852
1.20892
1.20945
1.20985
1.21002
1.21005
1.21004
1.21004
1.21003
1.21
1.20995
1.20986
1.2097
1.20952
1.2094
1.21028
1.21064
1.21115
1.21154
1.21172
1.21175
1.21175
1.21174
1.21173
1.2117
1.21165
1.21156
1.21141
1.21124
1.21112
1.20965
1.21
1.2105
1.2109
1.2111
1.21114
1.21113
1.21112
1.21111
1.21108
1.21103
1.21093
1.21078
1.2106
1.21049
SCALARS u-velocity float 1
LOOKUP_TABLE default
99.5972
99.5978
99.5986
99.5998
99.6005
99.6015
99.6017
99.6024
99.602
99.6021
99.6013
99.6008
99.5998
99.5992
99.5986
98.7395
98.739
98.7383
98.7375
98.7368
98.7362
98.7359
98.7359
98.7361
98.7365
98.7372
98.738
98.7389
98.7396
98.7401
99.7006
99.7024
99.7042
99.7073
99.7085
99.7111
99.7111
99.7127
99.7116
99.712
99.7099
99.709
99.7062
99.7046
99.703
98.61
98.6077
98.6044
98.6012
98.5989
98.5974
98.5966
98.5964
98.5967
98.5976
98.5992
98.6016
98.6047
98.608
98.6103
99.8413
99.8501
99.8591
99.8734
99.8797
99.8907
99.8915
99.8974
99.8925
99.8926
99.8826
99.8771
99.8636
99.8552
99.8467
98.4278
98.4174
98.4042
98.3952
98.39
98.389
98.3877
98.389
98.388
98.3896
98.3907
98.3961
98.4047
98.4176
98.4275
99.9677
100.015
100.056
100.118
100.144
100.188
100.193
100.214
100.195
100.193
100.151
100.126
100.067
100.027
99.9822
98.1772
98.1297
98.0924
98.0885
98.0923
98.1149
98.121
98.1361
98.1222
98.1178
98.0955
98.0932
98.0953
98.1306
98.1746
99.7838
100.074
100.23
100.494
100.602
100.773
100.8
100.866
100.804
100.782
100.616
100.511
100.254
100.106
99.8266
97.4449
97.336
97.4524
97.6625
97.8106
98.0329
98.1176
98.2106
98.1231
98.0458
97.824
97.6858
97.4715
97.3498
97.4284
97.8095
99.6647
100.014
101.225
101.724
102.273
102.459
102.594
102.468
102.289
101.754
101.259
100.059
99.7244
97.9493
89.6069
94.605
96.4239
98.2278
99.2466
100.394
100.81
101.122
100.825
100.432
99.2877
98.3002
96.5013
94.7583
89.5282
90.0033
94.207
101.737
104.028
106.532
106.986
108.029
107.778
108.045
107.017
106.588
104.121
101.866
94.2761
90.284
123.814
120.3
120.884
119.447
119.758
118.283
118.684
117.819
118.684
118.258
119.765
119.375
120.831
120.354
124.986
134.83
130.577
127.565
124.975
123.93
122.166
121.981
121.205
121.998
122.185
123.977
124.975
127.636
131.039
136
137
133.26
130.023
127.581
126.379
124.925
124.55
123.996
124.582
124.978
126.468
127.674
130.264
133.893
138.146
117.889
120.317
118.2
118.468
117.437
117.545
116.817
117.06
116.838
117.546
117.483
118.419
118.336
120.852
120.138
89.3314
101.723
102.681
106.318
106.58
108.685
108.299
109.247
108.265
108.615
106.434
106.029
102.394
102.321
92.1841
79.2931
90.7309
95.702
99.1549
100.365
102.137
102.297
102.954
102.254
102.08
100.147
98.8838
95.4815
91.7906
81.7123
96.1404
98.7953
102.031
103.028
103.461
103.955
104.03
104.264
104.027
103.94
103.345
102.862
102.168
100.071
98.6674
91.181
93.9153
97.0402
98.597
99.1582
99.6883
99.8439
100.059
99.8355
99.6479
98.9966
98.4069
97.2285
95.2217
93.5917
95.9984
98.0349
100.585
101.807
102.192
102.347
102.441
102.513
102.446
102.314
102.055
101.675
100.9
99.3874
98.3207
93.5174
95.4672
97.8916
99.2753
99.7345
99.896
99.9814
100.048
99.9807
99.8441
99.5783
99.1541
98.2615
96.8437
95.7868
95.6695
97.4391
99.6735
101.045
101.523
101.626
101.679
101.712
101.677
101.565
101.368
100.958
100.102
98.8196
97.8594
94.4226
96.0979
98.2529
99.6802
100.223
100.339
100.376
100.399
100.366
100.263
100.061
99.6171
98.7267
97.4924
96.5726
95.4944
97.0596
99.1147
100.551
101.139
101.263
101.284
101.293
101.266
101.176
100.977
100.515
99.6249
98.4485
97.5836
94.9399
96.4265
98.418
99.8754
100.515
100.66
100.671
100.67
100.645
100.56
100.353
99.8646
98.9629
97.8203
96.9937
95.4297
96.8369
98.7575
100.217
100.897
101.064
101.068
101.058
101.033
100.953
100.738
100.231
99.329
98.2241
97.4376
95.2904
96.6334
98.4976
99.9623
100.682
100.871
100.872
100.853
100.828
100.751
100.525
99.9987
99.0946
98.0187
97.2645
95.4201
96.7038
98.512
99.9733
100.725
100.939
100.941
100.914
100.888
100.809
100.573
100.032
99.13
98.0828
97.3587
SCALARS v-velocity float 1
LOOKUP_TABLE default
-0.000302951
-0.000570078
-0.000939094
-0.000909462
-0.000929462
-0.000694772
-0.000501562
-0.000222075
6.77378e-05
0.000286123
0.000564594
0.000603322
0.00070631
0.000425075
0.000252544
0.000514114
0.000785472
0.00148703
0.00131893
0.00147149
0.00104977
0.000823878
0.000395587
-5.10022e-05
-0.000322781
-0.000823226
-0.000775754
-0.00107473
-0.000528363
-0.0004253
-0.00134604
-0.00328166
-0.00477186
-0.00509642
-0.00471462
-0.00356798
-0.00198165
-0.000136639
0.00171854
0.0033083
0.00447402
0.00487957
0.00459142
0.0031655
0.00129977
0.00243469
0.00387098
0.00676959
0.00600338
0.00629849
0.004425
0.00320163
0.0012567
-0.000751468
-0.00210708
-0.00422281
-0.00424537
-0.00541386
-0.00301834
-0.00213231
-0.0035356
-0.00862639
-0.0114855
-0.0115101
-0.00986145
-0.0071579
-0.00368006
-2.37152e-05
0.00366561
0.00706637
0.0097351
0.0113066
0.0112214
0.00843026
0.00342313
0.0137622
0.0244307
0.0385073
0.0364234
0.0355704
0.0256842
0.0159081
0.00334744
-0.00941577
-0.0194607
-0.0299624
-0.0315686
-0.034622
-0.0219223
-0.0128155
-0.00673506
-0.0127149
-0.00925927
-0.00497144
0.000883791
0.00219451
0.00299281
0.000738885
-0.00132154
-0.0010679
-1.31208e-05
0.00520547
0.00879056
0.0121593
0.00620245
0.0730012
0.118436
0.173582
0.17005
0.157194
0.116042
0.0654827
0.00823768
-0.0497276
-0.100483
-0.143124
-0.157452
-0.162804
-0.110868
-0.0696336
0.0151929
0.0948429
0.167089
0.183441
0.18939
0.145078
0.0861386
0.0047832
-0.0752705
-0.137159
-0.182184
-0.179409
-0.166702
-0.0969152
-0.019228
0.377427
0.510371
0.695231
0.734725
0.605161
0.470424
0.239835
0.0182787
-0.206245
-0.435197
-0.573766
-0.705194
-0.66937
-0.487949
-0.36115
1.11508
1.72185
2.02332
1.91705
1.67881
1.20245
0.645708
0.0212101
-0.595471
-1.16416
-1.63777
-1.89016
-1.99991
-1.7188
-1.146
-0.313772
3.35988
2.5099
3.07234
2.02717
1.69845
0.766181
0.0354126
-0.706492
-1.63064
-1.97416
-3.01448
-2.48092
-3.33883
0.351569
23.1023
19.9535
15.9962
12.9243
9.06438
6.13858
2.95738
0.0665782
-2.7966
-6.00253
-8.88282
-12.7872
-15.771
-19.7806
-22.8735
25.1279
16.0659
13.169
8.69255
6.62593
3.8446
2.04818
0.0752669
-1.90705
-3.69104
-6.48523
-8.523
-13.0015
-15.8675
-25.2973
11.4081
7.10057
6.75536
4.16022
3.72855
2.00379
1.21586
0.0685718
-1.1315
-1.8725
-3.67179
-4.04048
-6.75366
-7.06436
-11.6399
-8.23289
-8.56829
-4.69683
-4.81245
-2.38984
-2.10667
-0.68536
0.126056
0.864551
2.36081
2.57338
5.0781
4.89946
8.85662
8.46356
-20.8604
-18.1316
-12.1377
-10.0846
-6.22953
-4.40861
-1.84639
0.155837
2.06931
4.7436
6.48559
10.4993
12.5127
18.797
21.5358
-23.3215
-18.4095
-14.4363
-10.8771
-7.84942
-4.97795
-2.41963
0.188239
2.61621
5.37779
8.04878
11.3647
14.6763
19.1758
23.9042
-2.47082
-0.488447
-2.21708
-1.31111
-1.73624
-0.901487
-0.61431
0.0442589
0.638057
0.975768
1.73926
1.35958
2.1878
0.423038
2.33171
-1.9116
-2.21997
-2.70129
-2.20872
-2.04183
-1.28868
-0.707753
0.0565137
0.774045
1.39088
2.10215
2.2952
2.73816
2.17868
1.88902
-0.19977
-0.27412
-0.375691
-0.210194
-0.340278
-0.171225
-0.132185
0.0106105
0.137426
0.188397
0.351394
0.231923
0.37597
0.228445
0.173913
-0.178105
-0.368394
-0.436812
-0.347168
-0.37389
-0.246123
-0.146053
0.0118693
0.160766
0.267592
0.394279
0.368847
0.432654
0.323943
0.154234
-0.0400164
-0.107786
-0.0798488
-0.0257311
-0.0490194
-0.032712
-0.02704
0.00221319
0.0288529
0.0397305
0.0615874
0.0396769
0.0744103
0.0764934
0.0219933
-0.0455316
-0.110386
-0.0918528
-0.0481722
-0.0502587
-0.0409336
-0.0284348
0.000346231
0.0283983
0.045562
0.0600514
0.0555172
0.0789487
0.0773238
0.0275219
-0.0261494
-0.059353
-0.0311364
0.00545122
0.00787688
6.37647e-05
-0.0048732
-0.000384524
0.00483455
0.00492327
0.00275325
0.00242139
0.0216286
0.0343804
0.0123878
-0.0273918
-0.0593487
-0.03802
-0.00426387
0.00421764
-0.00191208
-0.00611353
-0.00230125
0.0028791
0.00377552
0.00228664
0.00630564
0.0235973
0.0331414
0.0138503
-0.0209675
-0.0431492
-0.0229043
0.0072139
0.0166209
0.00881969
0.000660539
-0.00132309
-0.0015117
-0.00447699
-0.00820488
-0.00361437
0.0117576
0.0221116
0.0100884
-0.0210534
-0.0440286
-0.0285055
-0.000689167
0.0110463
0.00599431
-0.001028
-0.00281447
-0.00258811
-0.00451727
-0.00635794
-0.000119542
0.0142101
0.0222786
0.0103595
-0.0176473
-0.0364892
-0.0229318
0.0021009
0.0139498
0.00967987
0.0018772
-0.00192907
-0.00358168
-0.00640736
-0.00807378
-0.00186688
0.0109537
0.0181228
0.00865513
-0.0184687
-0.0392495
-0.0284668
-0.00443591
0.00887698
0.0068484
0.000408053
-0.00274082
-0.00367452
-0.00528549
-0.00530237
0.00191387
0.0142684
0.0198681
0.00927199
SCALARS Mach float 1
LOOKUP_TABLE default
30.0601
30.0605
30.061
30.0617
30.0621
30.0628
30.0629
30.0633
30.0631
30.0631
30.0626
30.0624
30.0617
30.0613
30.061
29.5564
29.5561
29.5557
29.5552
29.5548
29.5545
29.5543
29.5542
29.5544
29.5546
29.555
29.5555
29.5561
29.5565
29.5568
30.1196
30.1207
30.1218
30.1237
30.1244
30.1259
30.1259
30.1269
30.1262
30.1265
30.1252
30.1247
30.123
30.1221
30.1211
29.4821
29.4807
29.4787
29.4768
29.4755
29.4746
29.4741
29.474
29.4742
29.4748
29.4757
29.4771
29.479
29.4809
29.4823
30.201
30.2064
30.2119
30.2206
30.2244
30.2311
30.2316
30.2351
30.2322
30.2322
30.2261
30.2228
30.2146
30.2095
30.2044
29.3772
29.371
29.3632
29.358
29.3548
29.3545
29.3536
29.3545
29.3538
29.3549
29.3553
29.3586
29.3635
29.3712
29.377
30.2726
30.301
30.3263
30.364
30.3799
30.4069
30.4097
30.4226
30.4111
30.4096
30.3839
30.369
30.3328
30.3088
30.2814
29.2329
29.2051
29.183
29.1813
29.1836
29.1977
29.2011
29.2106
29.2019
29.1995
29.1856
29.1842
29.1848
29.2057
29.2315
30.1523
30.3287
30.4238
30.585
30.6513
30.7564
30.7727
30.8134
30.7756
30.762
30.6602
30.5957
30.4386
30.3484
30.1783
28.805
28.7439
28.8131
28.9408
29.0281
29.1623
29.2118
29.2685
29.2151
29.17
29.0361
28.9546
28.8245
28.7522
28.7955
28.9458
30.0684
30.2869
31.0305
31.3368
31.676
31.7886
31.8729
31.7939
31.6855
31.3553
31.0509
30.3138
30.1046
29.029
24.3605
27.2085
28.2441
29.3331
29.9277
30.6267
30.8734
31.0659
30.8828
30.6495
29.9521
29.3755
28.2894
27.2967
24.3185
26.0608
28.0277
32.0865
33.2673
34.6178
34.7859
35.3809
35.1931
35.3888
34.8018
34.6439
33.3163
32.1444
28.047
26.1816
48.7567
44.931
45.1232
43.7261
43.8708
42.6842
42.9538
42.3002
42.9523
42.662
43.8704
43.6643
45.0712
44.9515
49.6882
55.8584
52.0763
49.692
47.5519
46.7594
45.3724
45.2419
44.6413
45.2541
45.3847
46.7943
47.5484
49.7482
52.446
56.8577
57.6865
54.4917
51.7479
49.7507
48.785
47.6166
47.3438
46.8891
47.3689
47.6611
48.8575
49.8316
51.9491
55.032
58.6847
43.6004
44.9943
42.9288
42.9457
42.0321
42.0229
41.4735
41.6147
41.4919
42.0328
42.0758
42.9353
43.0576
45.4658
45.3382
25.8639
32.462
32.6711
34.7142
34.7179
35.9823
35.6779
36.2812
35.659
35.9478
34.6338
34.5579
32.515
32.9225
27.5339
18.9765
24.8794
27.7121
29.7618
30.5039
31.5939
31.6958
32.1051
31.669
31.5583
30.37
29.5977
27.5827
25.4675
20.1561
28.0561
29.6372
31.6277
32.2421
32.5135
32.8164
32.8624
33.0076
32.8607
32.8072
32.4412
32.139
31.7146
30.4137
29.5633
25.1468
26.6887
28.5049
29.4342
29.7726
30.0945
30.1897
30.321
30.1845
30.0699
29.6747
29.3196
28.6164
27.4423
26.505
27.9434
29.149
30.694
31.4484
31.6872
31.7834
31.8425
31.8868
31.8453
31.7628
31.6021
31.3658
30.8883
29.9659
29.3239
26.4738
27.5959
29.0234
29.8546
30.1328
30.2311
30.2831
30.324
30.2827
30.1993
30.0376
29.781
29.245
28.4042
27.7854
27.7423
28.784
30.127
30.9667
31.2617
31.3251
31.3582
31.3785
31.3565
31.2873
31.1655
30.913
30.3887
29.6127
29.0381
26.9983
27.9703
29.2461
30.1068
30.4369
30.5079
30.5304
30.545
30.5243
30.4614
30.3377
30.0683
29.5313
28.7951
28.2526
27.6359
28.5544
29.7835
30.6579
31.0194
31.0957
31.1084
31.1143
31.0976
31.0415
30.9192
30.6358
30.0936
29.3848
28.8691
27.2992
28.1656
29.3477
30.2282
30.6186
30.7074
30.7138
30.7136
30.6978
30.6459
30.5188
30.2215
29.6764
28.9929
28.5034
27.5979
28.4225
29.5676
30.4532
30.8702
30.9725
30.9749
30.9685
30.9534
30.9041
30.7716
30.4615
29.9139
29.2499
28.7818
27.4993
28.2842
29.3922
30.2778
30.7173
30.8337
30.834
30.8223
30.8071
30.7592
30.6208
30.3
29.7528
29.1081
28.6605
27.601
28.3527
29.429
30.3135
30.7733
30.9047
30.9057
30.8896
30.8732
30.8248
30.6797
30.3492
29.8026
29.1743
28.7438
