# vtk DataFile Version 3.0
Structured Grid Example
ASCII
DATASET STRUCTURED_GRID
DIMENSIONS 15 30 1
POINTS 450 FLOAT
0.0833327 0.0333334 0
0.0833313 0.1 0
0.0833301 0.166667 0
0.083329 0.233333 0
0.0833281 0.3 0
0.0833274 0.366667 0
0.083327 0.433333 0
0.0833268 0.5 0
0.083327 0.566667 0
0.0833274 0.633333 0
0.0833281 0.7 0
0.083329 0.766667 0
0.0833301 0.833333 0
0.0833313 0.9 0
0.0833327 0.966667 0
0.249998 0.0333334 0
0.249993 0.1 0
0.249989 0.166667 0
0.249986 0.233334 0
0.249983 0.3 0
0.24998 0.366667 0
0.249979 0.433333 0
0.249979 0.5 0
0.249979 0.566667 0
0.24998 0.633333 0
0.249983 0.7 0
0.249986 0.766666 0
0.249989 0.833333 0
0.249993 0.9 0
0.249998 0.966667 0
0.416662 0.0333336 0
0.416654 0.100001 0
0.416646 0.166668 0
0.416639 0.233334 0
0.416633 0.300001 0
0.416628 0.366667 0
0.416626 0.433334 0
0.416625 0.5 0
0.416626 0.566666 0
0.416628 0.633333 0
0.416633 0.699999 0
0.416639 0.766666 0
0.416646 0.833332 0
0.416654 0.899999 0
0.416662 0.966666 0
0.583326 0.033334 0
0.58331 0.100002 0
0.583296 0.166669 0
0.583284 0.233336 0
0.583273 0.300003 0
0.583266 0.366669 0
0.583261 0.433335 0
0.583259 0.5 0
0.583261 0.566665 0
0.583266 0.633331 0
0.583273 0.699997 0
0.583284 0.766664 0
0.583296 0.833331 0
0.58331 0.899998 0
0.583326 0.966666 0
0.749987 0.0333351 0
0.749961 0.100005 0
0.749937 0.166674 0
0.749915 0.233342 0
0.749898 0.300008 0
0.749884 0.366673 0
0.749876 0.433337 0
0.749874 0.5 0
0.749876 0.566663 0
0.749884 0.633327 0
0.749898 0.699992 0
0.749915 0.766658 0
0.749937 0.833326 0
0.749961 0.899995 0
0.749987 0.966665 0
0.916644 0.033338 0
0.916601 0.100013 0
0.91656 0.166686 0
0.916524 0.233356 0
0.916494 0.300021 0
0.916472 0.366683 0
0.916458 0.433342 0
0.916454 0.5 0
0.916458 0.566658 0
0.916472 0.633317 0
0.916494 0.699979 0
0.916524 0.766644 0
0.91656 0.833314 0
0.916601 0.899987 0
0.916644 0.966662 0
1.0833 0.0333461 0
1.08322 0.100036 0
1.08315 0.166719 0
1.08309 0.233394 0
1.08304 0.300058 0
1.08301 0.366712 0
1.08298 0.433358 0
1.08298 0.5 0
1.08298 0.566642 0
1.08301 0.633288 0
1.08304 0.699942 0
1.08309 0.766606 0
1.08315 0.833281 0
1.08322 0.899964 0
1.0833 0.966654 0
1.24994 0.0333682 0
1.24981 0.100098 0
1.2497 0.16681 0
1.24959 0.233497 0
1.24951 0.300156 0
1.24945 0.366788 0
1.24942 0.433399 0
1.2494 0.5 0
1.24942 0.566601 0
1.24945 0.633212 0
1.24951 0.699844 0
1.24959 0.766503 0
1.2497 0.83319 0
1.24981 0.899902 0
1.24994 0.966632 0
1.41656 0.0334298 0
1.41634 0.10027 0
1.41615 0.16706 0
1.41598 0.233778 0
1.41585 0.300419 0
1.41575 0.36699 0
1.41569 0.433509 0
1.41567 0.5 0
1.41569 0.566491 0
1.41575 0.63301 0
1.41585 0.699581 0
1.41598 0.766222 0
1.41615 0.83294 0
1.41634 0.89973 0
1.41656 0.96657 0
1.58313 0.0336075 0
1.58275 0.10076 0
1.58242 0.167751 0
1.58215 0.234537 0
1.58195 0.301115 0
1.58181 0.367517 0
1.58173 0.433791 0
1.58171 0.5 0
1.58173 0.566209 0
1.58181 0.632483 0
1.58195 0.698885 0
1.58215 0.765463 0
1.58242 0.832249 0
1.58275 0.89924 0
1.58313 0.966392 0
1.74959 0.0341677 0
1.74885 0.102235 0
1.74829 0.169714 0
1.74791 0.236575 0
1.74766 0.302905 0
1.74751 0.368829 0
1.74744 0.434482 0
1.74741 0.5 0
1.74744 0.565518 0
1.74751 0.631171 0
1.74766 0.697095 0
1.74791 0.763425 0
1.74829 0.830286 0
1.74885 0.897765 0
1.74959 0.965832 0
1.91555 0.0363295 0
1.91388 0.107253 0
1.91312 0.175401 0
1.91283 0.241837 0
1.91276 0.307169 0
1.91277 0.371793 0
1.9128 0.435995 0
1.91281 0.5 0
1.9128 0.564005 0
1.91277 0.628207 0
1.91276 0.692831 0
1.91283 0.758163 0
1.91312 0.824599 0
1.91388 0.892747 0
1.91555 0.963671 0
2.07838 0.0591504 0
2.07417 0.125973 0
2.07554 0.190391 0
2.07663 0.253364 0
2.07743 0.315525 0
2.07798 0.377223 0
2.07829 0.438667 0
2.0784 0.5 0
2.07829 0.561333 0
2.07798 0.622777 0
2.07743 0.684475 0
2.07663 0.746636 0
2.07554 0.809609 0
2.07417 0.874027 0
2.07838 0.94085 0
2.24384 0.096456 0
2.23911 0.153168 0
2.24152 0.210396 0
2.24318 0.267878 0
2.24431 0.325632 0
2.24503 0.383617 0
2.24544 0.441767 0
2.24557 0.5 0
2.24544 0.558233 0
2.24503 0.616383 0
2.24431 0.674368 0
2.24318 0.732122 0
2.24152 0.789604 0
2.23911 0.846832 0
2.24384 0.903544 0
2.41462 0.118677 0
2.41292 0.170231 0
2.41356 0.223198 0
2.41406 0.277268 0
2.41444 0.332207 0
2.4147 0.387788 0
2.41485 0.44379 0
2.4149 0.5 0
2.41485 0.55621 0
2.4147 0.612212 0
2.41444 0.667793 0
2.41406 0.722732 0
2.41356 0.776802 0
2.41292 0.829769 0
2.41462 0.881323 0
2.58538 0.118677 0
2.58708 0.170231 0
2.58644 0.223198 0
2.58594 0.277268 0
2.58556 0.332207 0
2.5853 0.387788 0
2.58515 0.44379 0
2.5851 0.5 0
2.58515 0.55621 0
2.5853 0.612212 0
2.58556 0.667793 0
2.58594 0.722732 0
2.58644 0.776802 0
2.58708 0.829769 0
2.58538 0.881323 0
2.75616 0.096456 0
2.76089 0.153168 0
2.75848 0.210396 0
2.75682 0.267878 0
2.75569 0.325632 0
2.75497 0.383617 0
2.75456 0.441767 0
2.75443 0.5 0
2.75456 0.558233 0
2.75497 0.616383 0
2.75569 0.674368 0
2.75682 0.732122 0
2.75848 0.789604 0
2.76089 0.846832 0
2.75616 0.903544 0
2.92162 0.0591504 0
2.92583 0.125973 0
2.92446 0.190391 0
2.92337 0.253364 0
2.92257 0.315525 0
2.92202 0.377223 0
2.92171 0.438667 0
2.9216 0.5 0
2.92171 0.561333 0
2.92202 0.622777 0
2.92257 0.684475 0
2.92337 0.746636 0
2.92446 0.809609 0
2.92583 0.874027 0
2.92162 0.94085 0
3.08445 0.0363295 0
3.08612 0.107253 0
3.08688 0.175401 0
3.08717 0.241837 0
3.08724 0.307169 0
3.08723 0.371793 0
3.0872 0.435995 0
3.08719 0.5 0
3.0872 0.564005 0
3.08723 0.628207 0
3.08724 0.692831 0
3.08717 0.758163 0
3.08688 0.824599 0
3.08612 0.892747 0
3.08445 0.963671 0
3.25041 0.0341677 0
3.25115 0.102235 0
3.25171 0.169714 0
3.25209 0.236575 0
3.25234 0.302905 0
3.25249 0.368829 0
3.25256 0.434482 0
3.25259 0.5 0
3.25256 0.565518 0
3.25249 0.631171 0
3.25234 0.697095 0
3.25209 0.763425 0
3.25171 0.830286 0
3.25115 0.897765 0
3.25041 0.965832 0
3.41687 0.0336075 0
3.41725 0.10076 0
3.41758 0.167751 0
3.41785 0.234537 0
3.41805 0.301115 0
3.41819 0.367517 0
3.41827 0.433791 0
3.41829 0.5 0
3.41827 0.566209 0
3.41819 0.632483 0
3.41805 0.698885 0
3.41785 0.765463 0
3.41758 0.832249 0
3.41725 0.89924 0
3.41687 0.966392 0
3.58344 0.0334298 0
3.58366 0.10027 0
3.58385 0.16706 0
3.58402 0.233778 0
3.58415 0.300419 0
3.58425 0.36699 0
3.58431 0.433509 0
3.58433 0.5 0
3.58431 0.566491 0
3.58425 0.63301 0
3.58415 0.699581 0
3.58402 0.766222 0
3.58385 0.83294 0
3.58366 0.89973 0
3.58344 0.96657 0
3.75006 0.0333682 0
3.75019 0.100098 0
3.7503 0.16681 0
3.75041 0.233497 0
3.75049 0.300156 0
3.75055 0.366788 0
3.75058 0.433399 0
3.7506 0.5 0
3.75058 0.566601 0
3.75055 0.633212 0
3.75049 0.699844 0
3.75041 0.766503 0
3.7503 0.83319 0
3.75019 0.899902 0
3.75006 0.966632 0
3.9167 0.0333461 0
3.91678 0.100036 0
3.91685 0.166719 0
3.91691 0.233394 0
3.91696 0.300058 0
3.91699 0.366712 0
3.91702 0.433358 0
3.91702 0.5 0
3.91702 0.566642 0
3.91699 0.633288 0
3.91696 0.699942 0
3.91691 0.766606 0
3.91685 0.833281 0
3.91678 0.899964 0
3.9167 0.966654 0
4.08336 0.033338 0
4.0834 0.100013 0
4.08344 0.166686 0
4.08348 0.233356 0
4.08351 0.300021 0
4.08353 0.366683 0
4.08354 0.433342 0
4.08355 0.5 0
4.08354 0.566658 0
4.08353 0.633317 0
4.08351 0.699979 0
4.08348 0.766644 0
4.08344 0.833314 0
4.0834 0.899987 0
4.08336 0.966662 0
4.25001 0.0333351 0
4.25004 0.100005 0
4.25006 0.166674 0
4.25008 0.233342 0
4.2501 0.300008 0
4.25012 0.366673 0
4.25012 0.433337 0
4.25013 0.5 0
4.25012 0.566663 0
4.25012 0.633327 0
4.2501 0.699992 0
4.25008 0.766658 0
4.25006 0.833326 0
4.25004 0.899995 0
4.25001 0.966665 0
4.41667 0.033334 0
4.41669 0.100002 0
4.4167 0.166669 0
4.41672 0.233336 0
4.41673 0.300003 0
4.41673 0.366669 0
4.41674 0.433335 0
4.41674 0.5 0
4.41674 0.566665 0
4.41673 0.633331 0
4.41673 0.699997 0
4.41672 0.766664 0
4.4167 0.833331 0
4.41669 0.899998 0
4.41667 0.966666 0
4.58334 0.0333336 0
4.58335 0.100001 0
4.58335 0.166668 0
4.58336 0.233334 0
4.58337 0.300001 0
4.58337 0.366667 0
4.58337 0.433334 0
4.58338 0.5 0
4.58337 0.566666 0
4.58337 0.633333 0
4.58337 0.699999 0
4.58336 0.766666 0
4.58335 0.833332 0
4.58335 0.899999 0
4.58334 0.966666 0
4.75 0.0333334 0
4.75001 0.1 0
4.75001 0.166667 0
4.75001 0.233334 0
4.75002 0.3 0
4.75002 0.366667 0
4.75002 0.433333 0
4.75002 0.5 0
4.75002 0.566667 0
4.75002 0.633333 0
4.75002 0.7 0
4.75001 0.766666 0
4.75001 0.833333 0
4.75001 0.9 0
4.75 0.966667 0
4.91667 0.0333334 0
4.91667 0.1 0
4.91667 0.166667 0
4.91667 0.233333 0
4.91667 0.3 0
4.91667 0.366667 0
4.91667 0.433333 0
4.91667 0.5 0
4.91667 0.566667 0
4.91667 0.633333 0
4.91667 0.7 0
4.91667 0.766667 0
4.91667 0.833333 0
4.91667 0.9 0
4.91667 0.966667 0
POINT_DATA 450
SCALARS pressure float 1
LOOKUP_TABLE default
94473.4
94473.3
94473.1
94472.9
94472.6
94472.5
94472.3
94472.3
94472.3
94472.4
94472.6
94472.9
94473.1
94473.3
94473.4
94204.7
94205
94205.4
94206
94206.7
94207.1
94207.6
94207.5
94207.6
94207
94206.6
94205.9
94205.3
94204.9
94204.6
94531.1
94531.9
94533
94534.7
94536.3
94537.7
94538.7
94539
94538.7
94537.7
94536.3
94534.7
94533
94531.9
94531.1
94131.8
94132.5
94134.2
94135.8
94138.2
94139.5
94141.2
94141.1
94141.2
94139.4
94138.1
94135.7
94134
94132.3
94131.6
94607.6
94608.4
94610.1
94612.2
94614.4
94616.2
94617.6
94618
94617.6
94616.2
94614.4
94612.1
94610
94608.4
94607.5
94046
94045.5
94047.4
94046.7
94049.5
94048.2
94051
94048.9
94050.8
94048
94049.1
94046.2
94046.8
94044.9
94045.4
94715.3
94714.4
94714.8
94713.4
94713.8
94712.4
94713.2
94712
94713.1
94712.2
94713.6
94713.1
94714.5
94714.1
94715
93949.8
93941.8
93942
93927.8
93929.1
93915.2
93920
93910.1
93919.6
93914.4
93928
93926.4
93940.3
93940
93947.8
94882.7
94870.4
94864.8
94846
94840
94824
94823.6
94815.1
94823.4
94823.3
94839.4
94844.9
94863.9
94869.1
94881.6
93911.3
93844.4
93837.4
93755.2
93749.2
93686.6
93695.6
93661
93694.5
93684.7
93746
93751.5
93832.6
93839.2
93905.8
95286.4
95143.9
95104.1
94991.1
94956.7
94884
94878.2
94845.8
94877.8
94881.9
94955.5
94987.1
95102.2
95138.9
95283.7
94578.1
93816.5
93772.8
93353
93300.2
93099.5
93091.5
93019.5
93089.2
93096
93292.8
93344.9
93760
93802.1
94559.5
96104.7
95462.3
95052.1
94756
94612.9
94478.3
94440
94399.8
94439.4
94472.6
94611.7
94742.7
95051.7
95437.5
96105.4
89135.8
90213.3
89828.4
90519
90314.3
90746.3
90553.4
90827.1
90553.1
90751
90313.5
90531.2
89827.3
90239.8
89127.6
90209.3
91518.9
91409.7
92231.9
92070.6
92592.3
92363.6
92702.6
92360.2
92595.3
92059.8
92239.1
91390.5
91532.4
90173.5
87370.7
88848.5
88627.2
89612.4
89372.8
90030.3
89717.8
90162.2
89711
90026.8
89350.9
89602.2
88586.9
88823.5
87296.2
91765.7
92526.1
92295.1
92848.1
92626.5
93037.6
92781.8
93099.9
92776.1
93040.8
92608
92853.6
92258.7
92529.4
91702.1
93241.9
92723.7
92592.6
92411.6
92288
92289.6
92171
92261.8
92168.2
92306.3
92279.2
92449.5
92574.8
92795.6
93236.6
96865.3
95832.9
95651.1
95164
95021.6
94819.9
94752.1
94717.4
94758.7
94832.6
95043.5
95189.6
95694.6
95871.1
96965
93020.9
93093.7
93066.1
93092.1
93058.1
93077.6
93043
93071.1
93042
93079
93054.8
93093.2
93059.7
93091.1
93012.1
95133.8
95049.6
95006.1
94907.7
94866.5
94802.3
94786.3
94765.9
94788.7
94806.7
94873.3
94915.5
95016.4
95059.5
95146.6
93532.7
93533.8
93527.9
93525.1
93515.8
93514.1
93506
93509.3
93505.8
93514.2
93515.2
93525
93527.1
93533.4
93532.3
94634.7
94625.2
94614.1
94594.5
94581.8
94565
94559.6
94553.6
94560.1
94566.1
94583.3
94596.1
94616
94627
94636.6
93794.1
93792.4
93788.8
93784.1
93779.1
93774.8
93771.7
93770.9
93771.8
93774.9
93779.3
93784.3
93789.1
93792.9
93794.6
94415.7
94413.7
94410.1
94404.9
94400.6
94395.6
94393.7
94391.8
94393.8
94395.8
94400.8
94405
94410.3
94413.8
94415.7
93926.1
93926
93925.1
93924.1
93923.1
93921.8
93921.4
93920.9
93921.5
93922
93923.3
93924.4
93925.5
93926.5
93926.7
94302.4
94302.7
94302.6
94302.8
94303.1
94303.1
94303.6
94303.3
94303.6
94303.1
94303.1
94302.7
94302.5
94302.5
94302.1
93990.8
93991.8
93993
93994.7
93996.4
93997.9
93999
93999.2
93999.1
93998
93996.7
93995
93993.3
93992.3
93991.3
94251.5
94252.4
94253.5
94255.3
94257
94258.5
94259.6
94259.9
94259.6
94258.5
94257
94255.2
94253.5
94252.3
94251.4
94022.4
94023.1
94024.1
94025.5
94026.8
94027.9
94028.7
94029
94028.8
94028.1
94027.1
94025.9
94024.6
94023.7
94023.1
SCALARS density float 1
LOOKUP_TABLE default
1.21459
1.21459
1.21459
1.21459
1.21459
1.21459
1.21459
1.21459
1.21459
1.21459
1.21459
1.21459
1.21459
1.21459
1.21459
1.21211
1.21211
1.21212
1.21212
1.21213
1.21214
1.21214
1.21214
1.21214
1.21214
1.21213
1.21212
1.21212
1.21211
1.21211
1.21511
1.21511
1.21513
1.21514
1.21516
1.21517
1.21518
1.21518
1.21518
1.21517
1.21516
1.21514
1.21513
1.21512
1.21511
1.21144
1.21145
1.21147
1.21148
1.21151
1.21152
1.21153
1.21153
1.21153
1.21152
1.21151
1.21148
1.21147
1.21145
1.21144
1.21581
1.21582
1.21583
1.21585
1.21587
1.21589
1.21591
1.21591
1.21591
1.21589
1.21588
1.21585
1.21583
1.21582
1.21581
1.21067
1.21066
1.21068
1.21068
1.2107
1.2107
1.21072
1.2107
1.21072
1.21069
1.2107
1.21067
1.21068
1.21066
1.21066
1.21678
1.21678
1.21678
1.21677
1.21677
1.21676
1.21677
1.21676
1.21677
1.21676
1.21677
1.21677
1.21678
1.21677
1.21678
1.20984
1.20977
1.20977
1.20964
1.20966
1.20953
1.20958
1.20949
1.20958
1.20953
1.20965
1.20963
1.20976
1.20976
1.20982
1.21819
1.21808
1.21805
1.21789
1.21785
1.2177
1.2177
1.21762
1.2177
1.2177
1.21784
1.21788
1.21804
1.21807
1.21818
1.20984
1.20923
1.20911
1.20832
1.20825
1.20766
1.20774
1.20742
1.20773
1.20765
1.20822
1.20829
1.20907
1.20918
1.20979
1.22092
1.21983
1.21965
1.21877
1.21854
1.21793
1.2179
1.21761
1.21789
1.21791
1.21854
1.21874
1.21964
1.21979
1.22091
1.21874
1.21077
1.20985
1.20555
1.20485
1.20282
1.20268
1.20197
1.20266
1.20278
1.20478
1.20546
1.20972
1.21063
1.21856
1.22571
1.22091
1.21787
1.21579
1.21474
1.21371
1.21343
1.21311
1.21343
1.21366
1.21474
1.21569
1.21789
1.22065
1.22571
1.16444
1.17507
1.17118
1.17779
1.17588
1.18
1.17819
1.18078
1.17819
1.18004
1.17587
1.1779
1.17116
1.17545
1.165
1.17547
1.18818
1.18667
1.19424
1.19259
1.19743
1.19525
1.19841
1.19522
1.19746
1.19249
1.1943
1.1865
1.18852
1.17567
1.14718
1.1616
1.15949
1.16874
1.16652
1.17272
1.16984
1.17399
1.16978
1.17269
1.1663
1.16863
1.15914
1.16161
1.147
1.18883
1.19644
1.19459
1.19968
1.19773
1.20149
1.19921
1.20209
1.19916
1.20152
1.19756
1.19971
1.19427
1.19673
1.18918
1.20182
1.19785
1.19694
1.19507
1.19393
1.19388
1.19286
1.19364
1.19284
1.19404
1.19385
1.19538
1.1968
1.19895
1.2031
1.23294
1.22539
1.22463
1.22043
1.2192
1.21742
1.21687
1.21655
1.21693
1.21753
1.21937
1.22058
1.22505
1.22623
1.23508
1.1989
1.20041
1.2009
1.20137
1.20108
1.20127
1.201
1.20127
1.201
1.20128
1.20101
1.2013
1.20092
1.20092
1.19991
1.2184
1.21834
1.21869
1.21808
1.21774
1.21718
1.21707
1.2169
1.2171
1.21721
1.21775
1.21808
1.21888
1.219
1.21958
1.20386
1.20447
1.20509
1.20538
1.20535
1.20535
1.2053
1.20535
1.2053
1.20533
1.20529
1.20532
1.20521
1.20504
1.20486
1.21402
1.21448
1.21504
1.21521
1.21517
1.21502
1.21499
1.21495
1.215
1.21501
1.21512
1.21517
1.21521
1.2151
1.21501
1.20637
1.20685
1.20744
1.20776
1.20782
1.20778
1.20777
1.20777
1.20777
1.20776
1.20775
1.20772
1.20762
1.20745
1.20731
1.21209
1.21254
1.2131
1.21343
1.21351
1.21348
1.21346
1.21345
1.21346
1.21344
1.21344
1.2134
1.2133
1.21314
1.21301
1.20767
1.20811
1.20867
1.20905
1.20918
1.20919
1.20918
1.20918
1.20918
1.20915
1.20911
1.20904
1.2089
1.20872
1.20858
1.21104
1.21145
1.212
1.21239
1.21255
1.21257
1.21257
1.21257
1.21256
1.21252
1.21247
1.21238
1.21223
1.21205
1.21192
1.20848
1.20888
1.20943
1.20985
1.21003
1.21007
1.21008
1.21008
1.21006
1.21002
1.20996
1.20985
1.20968
1.20949
1.20935
1.21024
1.21061
1.21113
1.21154
1.21173
1.21178
1.21178
1.21178
1.21176
1.21173
1.21166
1.21155
1.21139
1.2112
1.21108
1.20963
1.20999
1.2105
1.21091
1.21111
1.21116
1.21116
1.21115
1.21113
1.2111
1.21104
1.21093
1.21077
1.21059
1.21047
SCALARS u-velocity float 1
LOOKUP_TABLE default
99.5941
99.5953
99.597
99.5995
99.6014
99.6037
99.6046
99.6055
99.6048
99.6042
99.6022
99.6005
99.5982
99.5966
99.5955
98.7379
98.7375
98.7374
98.7372
98.7372
98.7373
98.7374
98.7375
98.7375
98.7376
98.7376
98.7377
98.7379
98.7381
98.7384
99.7024
99.7037
99.7051
99.7075
99.708
99.71
99.7096
99.711
99.71
99.7109
99.7093
99.7091
99.707
99.7059
99.7047
98.6136
98.6106
98.6063
98.6016
98.5979
98.595
98.5934
98.5928
98.5935
98.5952
98.5981
98.6019
98.6065
98.6108
98.6138
99.8463
99.8542
99.8617
99.8739
99.8781
99.8872
99.8868
99.8922
99.8878
99.8891
99.8809
99.8775
99.8661
99.8592
99.8517
98.4331
98.4218
98.407
98.3959
98.3885
98.3856
98.383
98.3837
98.3833
98.3862
98.3891
98.3967
98.4075
98.4219
98.4327
99.9716
100.018
100.058
100.118
100.143
100.186
100.189
100.21
100.192
100.19
100.149
100.127
100.069
100.031
99.9861
98.1787
98.1311
98.0931
98.0886
98.0918
98.1137
98.1194
98.1344
98.1207
98.1166
98.095
98.0933
98.096
98.1319
98.1761
99.7829
100.074
100.23
100.494
100.602
100.774
100.8
100.866
100.805
100.783
100.617
100.511
100.254
100.106
99.8257
97.4415
97.3333
97.4506
97.662
97.8115
98.0349
98.1204
98.2137
98.1259
98.0478
97.8249
97.6854
97.4697
97.3471
97.4251
97.8053
99.6612
100.012
101.225
101.725
102.276
102.463
102.598
102.472
102.292
101.756
101.258
100.057
99.721
97.9451
89.6033
94.6018
96.4222
98.2278
99.2484
100.397
100.814
101.127
100.83
100.436
99.2896
98.3004
96.4997
94.7552
89.5247
90.0004
94.2045
101.736
104.028
106.533
106.987
108.031
107.78
108.047
107.019
106.589
104.121
101.864
94.2738
90.2812
123.812
120.3
120.883
119.446
119.758
118.283
118.683
117.819
118.684
118.258
119.765
119.375
120.831
120.353
124.985
134.832
130.578
127.566
124.975
123.93
122.165
121.98
121.204
121.997
122.184
123.977
124.975
127.636
131.04
136.002
137.003
133.263
130.025
127.581
126.379
124.923
124.548
123.993
124.579
124.976
126.467
127.674
130.265
133.896
138.15
117.894
120.321
118.202
118.468
117.436
117.542
116.813
117.056
116.834
117.543
117.481
118.419
118.338
120.856
120.143
89.3357
101.726
102.682
106.317
106.577
108.681
108.294
109.242
108.261
108.611
106.432
106.028
102.395
102.324
92.1884
79.293
90.7309
95.7017
99.1542
100.364
102.136
102.296
102.953
102.253
102.078
100.146
98.8832
95.4812
91.7907
81.7123
96.1348
98.791
102.028
103.026
103.461
103.958
104.033
104.268
104.03
103.942
103.346
102.861
102.165
100.067
98.6618
91.1727
93.9088
97.0358
98.5957
99.1599
99.6929
99.8504
100.066
99.8419
99.6526
98.9984
98.4057
97.2241
95.2152
93.5835
95.9886
98.0271
100.58
101.807
102.195
102.354
102.451
102.523
102.455
102.321
102.059
101.674
100.895
99.3796
98.3109
93.509
95.4605
97.8878
99.2753
99.7384
99.9034
99.991
100.059
99.9904
99.8515
99.5821
99.1541
98.2577
96.8369
95.7784
95.6639
97.4345
99.6712
101.046
101.526
101.632
101.687
101.72
101.684
101.571
101.372
100.959
100.099
98.8149
97.8537
94.4206
96.0962
98.2521
99.6804
100.224
100.341
100.379
100.403
100.369
100.266
100.062
99.6172
98.7259
97.4905
96.5706
95.4958
97.0605
99.1153
100.551
101.138
101.261
101.281
101.291
101.264
101.174
100.976
100.515
99.6253
98.4493
97.585
94.9445
96.4299
98.4199
99.875
100.512
100.656
100.665
100.664
100.639
100.556
100.35
99.8642
98.9647
97.8237
96.9983
95.4359
96.8418
98.7602
100.217
100.894
101.058
101.061
101.05
101.026
100.948
100.735
100.231
99.3317
98.2289
97.4436
95.2964
96.6383
98.5004
99.9626
100.679
100.867
100.866
100.846
100.822
100.746
100.522
99.9989
99.0974
98.0235
97.2704
95.4241
96.7073
98.5144
99.9744
100.724
100.937
100.938
100.912
100.886
100.808
100.573
100.033
99.1323
98.0863
97.3626
SCALARS v-velocity float 1
LOOKUP_TABLE default
7.20785e-05
0.000440385
0.000539973
0.000809279
0.000692163
0.000595318
0.000200495
-0.000207751
-0.000606109
-0.000977837
-0.00103365
-0.00109641
-0.000758166
-0.000576868
-0.000119067
0.00187732
0.00428623
0.00681132
0.00734638
0.00727994
0.00557159
0.00330032
0.000390288
-0.00253702
-0.00485436
-0.00663957
-0.00681054
-0.00640383
-0.00403275
-0.00178936
-0.000147257
-0.00031288
-9.3864e-05
6.75239e-05
0.000377321
0.000313138
0.000176177
-0.000159856
-0.000483591
-0.000615313
-0.00065461
-0.000315632
-0.000109323
0.000182197
9.6039e-05
0.00304923
0.00526683
0.00918914
0.00849461
0.00891777
0.00630162
0.0042891
0.0012116
-0.00192567
-0.00406606
-0.00691377
-0.00679685
-0.00787776
-0.00444189
-0.00275661
-0.0039569
-0.00995927
-0.0130977
-0.0136862
-0.01165
-0.00878741
-0.00449372
-9.89321e-05
0.00433369
0.00855852
0.0114032
0.0133822
0.0127589
0.00971715
0.00382781
0.0120408
0.0197357
0.0318384
0.0284673
0.0282584
0.0197091
0.0127207
0.00324777
-0.00642167
-0.0136673
-0.0228098
-0.0237448
-0.0280517
-0.0172875
-0.0111161
-0.00958023
-0.0202527
-0.0202972
-0.0178376
-0.011189
-0.00747643
-0.00223935
0.000614888
0.00366936
0.00837677
0.0118602
0.0179065
0.0197046
0.0196217
0.00901989
0.0694214
0.109074
0.159663
0.154004
0.141979
0.103969
0.0588996
0.0080948
-0.0434227
-0.0886699
-0.128139
-0.141594
-0.149027
-0.101592
-0.0660854
0.0115509
0.0854405
0.152943
0.167302
0.173966
0.132937
0.0794712
0.00463283
-0.0688968
-0.125293
-0.167002
-0.16347
-0.152707
-0.0876041
-0.01562
0.374192
0.502138
0.682707
0.720579
0.591545
0.459792
0.233949
0.0181244
-0.200662
-0.424846
-0.560399
-0.691251
-0.657
-0.479807
-0.357949
1.11278
1.71619
2.01465
1.90746
1.66955
1.19531
0.64172
0.0210656
-0.591765
-1.15728
-1.62875
-1.88077
-1.99139
-1.71323
-1.14374
-0.315065
3.35652
2.50499
3.06707
2.02213
1.69467
0.76402
0.0352758
-0.704601
-1.6271
-1.96934
-3.0094
-2.47614
-3.33555
0.352843
23.1011
19.9521
15.9948
12.9232
9.06351
6.138
2.95702
0.0664632
-2.79647
-6.00218
-8.88214
-12.7863
-15.7698
-19.7793
-22.8724
25.1279
16.0661
13.1696
8.69333
6.62661
3.84519
2.04843
0.0751868
-1.90746
-3.69178
-6.48606
-8.52391
-13.0022
-15.8679
-25.2973
11.4082
7.10048
6.75524
4.16004
3.72834
2.00363
1.21573
0.0685183
-1.13148
-1.87244
-3.67168
-4.04039
-6.75362
-7.06432
-11.6401
-8.23384
-8.57025
-4.69937
-4.81519
-2.39238
-2.10861
-0.686432
0.12602
0.865549
2.36268
2.57586
5.0808
4.90195
8.85856
8.46451
-20.8634
-18.1367
-12.1444
-10.0915
-6.23596
-4.4134
-1.84902
0.155824
2.07191
4.74837
6.492
10.5062
12.5193
18.8021
21.5389
-23.3262
-18.4182
-14.4484
-10.89
-7.86141
-4.98708
-2.42458
0.188245
2.62114
5.38693
8.06077
11.3775
14.6884
19.1845
23.909
-2.47464
-0.498311
-2.23197
-1.32759
-1.75206
-0.913585
-0.620962
0.0442828
0.644736
0.987908
1.75511
1.3761
2.20273
0.432941
2.33557
-1.91459
-2.22782
-2.71364
-2.22251
-2.05544
-1.29907
-0.713552
0.0565582
0.779914
1.40136
2.11582
2.30906
2.75059
2.18659
1.89206
-0.201467
-0.278127
-0.38245
-0.217369
-0.347694
-0.176654
-0.135313
0.010684
0.140687
0.193961
0.358925
0.239202
0.382827
0.232529
0.17565
-0.177675
-0.36683
-0.435297
-0.344777
-0.37227
-0.244393
-0.145308
0.0119707
0.160209
0.266046
0.392817
0.366594
0.431252
0.322452
0.153834
-0.0372218
-0.100048
-0.0689757
-0.0126018
-0.0370898
-0.0228786
-0.0218638
0.00233768
0.0239131
0.0301205
0.0498499
0.0267047
0.0636481
0.0688077
0.0192158
-0.0407653
-0.0975964
-0.0731954
-0.026243
-0.0297838
-0.0244629
-0.0195958
0.000488014
0.0198311
0.0293434
0.039793
0.033756
0.0603953
0.0645693
0.0227624
-0.0202066
-0.0436521
-0.00782889
0.0325022
0.0334596
0.0204196
0.00615358
-0.000237186
-0.00590835
-0.0151717
-0.0226069
-0.0244638
-0.00158533
0.0187018
0.00644557
-0.0213594
-0.0436206
-0.0143749
0.0229206
0.0301614
0.0185711
0.00506135
-0.00216081
-0.00802339
-0.0164585
-0.0234436
-0.0207224
3.86341e-05
0.0174339
0.00781849
-0.0157531
-0.0297363
-0.00250907
0.0304444
0.0389743
0.0263427
0.0102883
-0.00119784
-0.0108953
-0.0217761
-0.0303648
-0.0267
-0.00855046
0.00873051
0.00488131
-0.0174504
-0.0348976
-0.0144481
0.0151444
0.0264205
0.017945
0.00559084
-0.0027254
-0.00903209
-0.0163066
-0.0215899
-0.0158416
0.000228572
0.0131867
0.0067692
-0.0155598
-0.0312924
-0.0148176
0.011099
0.0227859
0.0164714
0.00568131
-0.00187075
-0.0072707
-0.0130918
-0.0168137
-0.0107836
0.00290498
0.0129707
0.00658479
-0.0178657
-0.037816
-0.0261727
-0.00198619
0.0113358
0.00869514
0.00147012
-0.00271312
-0.00468218
-0.00708141
-0.00771591
-0.000493178
0.0120161
0.0184709
0.00868432
SCALARS Mach float 1
LOOKUP_TABLE default
30.0583
30.059
30.06
30.0615
30.0627
30.0641
30.0647
30.0653
30.0648
30.0645
30.0632
30.0622
30.0608
30.0598
30.0591
29.5555
29.5553
29.5552
29.5551
29.5551
29.5551
29.5551
29.5552
29.5552
29.5553
29.5553
29.5554
29.5555
29.5556
29.5558
30.1208
30.1216
30.1224
30.1238
30.1241
30.1252
30.1249
30.1258
30.1251
30.1257
30.1248
30.1248
30.1236
30.1229
30.1222
29.4845
29.4826
29.48
29.4771
29.4748
29.4731
29.472
29.4717
29.472
29.4732
29.475
29.4773
29.4802
29.4828
29.4846
30.2044
30.2091
30.2136
30.2209
30.2234
30.2288
30.2285
30.2317
30.2291
30.2299
30.2251
30.2231
30.2163
30.2122
30.2076
29.3806
29.3739
29.365
29.3584
29.3539
29.3522
29.3506
29.3511
29.3507
29.3526
29.3543
29.3589
29.3653
29.374
29.3804
30.2751
30.3032
30.3277
30.3643
30.3791
30.4051
30.4073
30.4199
30.4087
30.4077
30.383
30.3693
30.3341
30.311
30.2839
29.2338
29.206
29.1834
29.1814
29.1832
29.1969
29.2001
29.2094
29.2009
29.1986
29.1852
29.1842
29.1852
29.2066
29.2324
30.1518
30.3283
30.4235
30.585
30.6515
30.7568
30.7732
30.8139
30.7762
30.7623
30.6604
30.5957
30.4383
30.348
30.1777
28.8029
28.7422
28.8119
28.9404
29.0286
29.1636
29.2136
29.2705
29.2169
29.1713
29.0366
28.9543
28.8233
28.7506
28.7934
28.9431
30.0661
30.2854
31.0302
31.3377
31.678
31.7913
31.8759
31.7966
31.6875
31.3562
31.0506
30.3123
30.1024
29.0264
24.3584
27.2065
28.243
29.333
29.9288
30.6288
30.8763
31.0691
30.8857
30.6517
29.9532
29.3754
28.2884
27.2948
24.3164
26.0589
28.026
32.0853
33.267
34.6182
34.7871
35.3825
35.1949
35.3904
34.803
34.6444
33.316
32.1433
28.0454
26.1798
48.7557
44.9303
45.1227
43.7259
43.8706
42.6842
42.9537
42.3002
42.9522
42.662
43.8702
43.6641
45.0708
44.9509
49.6874
55.8594
52.0771
49.6926
47.552
46.7591
45.3717
45.2411
44.6404
45.2532
45.3841
46.794
47.5485
49.7487
52.4468
56.8589
57.6896
54.4941
51.7493
49.7511
48.7845
47.6154
47.342
46.8872
47.3672
47.6599
48.857
49.8321
51.9505
55.0344
58.6879
43.6046
44.9975
42.9307
42.9462
42.0312
42.0208
41.4707
41.6115
41.4891
42.0307
42.0749
42.9358
43.0595
45.4691
45.3425
25.8668
32.4646
32.6728
34.7145
34.7169
35.9799
35.6749
36.2777
35.656
35.9455
34.6328
34.5582
32.5168
32.9253
27.537
18.9765
24.8794
27.712
29.7615
30.5036
31.5934
31.6952
32.1044
31.6684
31.5577
30.3697
29.5974
27.5827
25.4675
20.1561
28.0525
29.6345
31.6257
32.2415
32.5141
32.8182
32.8649
33.0103
32.8633
32.809
32.4419
32.1384
31.7127
30.4109
29.5596
25.1418
26.6847
28.5021
29.4334
29.7738
30.0977
30.1941
30.3259
30.1889
30.073
29.676
29.3189
28.6136
27.4382
26.5
27.9372
29.1439
30.6908
31.448
31.6895
31.7882
31.8489
31.8939
31.8517
31.7676
31.6044
31.3654
30.8851
29.9608
29.3175
26.4685
27.5916
29.0209
29.8546
30.1353
30.2359
30.2894
30.331
30.2891
30.2042
30.04
29.781
29.2424
28.3998
27.78
27.7386
28.781
30.1254
30.9669
31.2637
31.329
31.3631
31.3839
31.3614
31.2912
31.1675
30.9131
30.387
29.6095
29.0343
26.9969
27.9691
29.2455
30.1069
30.4377
30.5094
30.5324
30.5472
30.5263
30.463
30.3386
30.0684
29.5307
28.7938
28.2511
27.6367
28.5549
29.7838
30.6577
31.0188
31.0947
31.107
31.113
31.0963
31.0405
30.9186
30.6356
30.0939
29.3852
28.8699
27.302
28.1677
29.3489
30.228
30.617
30.7046
30.7101
30.7096
30.6941
30.643
30.5172
30.2213
29.6776
28.995
28.5062
27.6017
28.4255
29.5694
30.4532
30.8683
30.9689
30.9703
30.9635
30.9488
30.9005
30.7697
30.4614
29.9157
29.2529
28.7856
27.503
28.2872
29.394
30.278
30.7158
30.8306
30.8299
30.8178
30.8029
30.7561
30.6192
30.3001
29.7545
29.1112
28.6642
27.6034
28.3549
29.4305
30.3142
30.7731
30.9037
30.9042
30.8878
30.8717
30.8237
30.6794
30.3498
29.8041
29.1764
28.7462
