# vtk DataFile Version 3.0
Structured Grid Example
ASCII
DATASET STRUCTURED_GRID
DIMENSIONS 15 30 1
POINTS 450 FLOAT
0.0833327 0.0333334 0
0.0833313 0.1 0
0.0833301 0.166667 0
0.083329 0.233333 0
0.0833281 0.3 0
0.0833274 0.366667 0
0.083327 0.433333 0
0.0833268 0.5 0
0.083327 0.566667 0
0.0833274 0.633333 0
0.0833281 0.7 0
0.083329 0.766667 0
0.0833301 0.833333 0
0.0833313 0.9 0
0.0833327 0.966667 0
0.249998 0.0333334 0
0.249993 0.1 0
0.249989 0.166667 0
0.249986 0.233334 0
0.249983 0.3 0
0.24998 0.366667 0
0.249979 0.433333 0
0.249979 0.5 0
0.249979 0.566667 0
0.24998 0.633333 0
0.249983 0.7 0
0.249986 0.766666 0
0.249989 0.833333 0
0.249993 0.9 0
0.249998 0.966667 0
0.416662 0.0333336 0
0.416654 0.100001 0
0.416646 0.166668 0
0.416639 0.233334 0
0.416633 0.300001 0
0.416628 0.366667 0
0.416626 0.433334 0
0.416625 0.5 0
0.416626 0.566666 0
0.416628 0.633333 0
0.416633 0.699999 0
0.416639 0.766666 0
0.416646 0.833332 0
0.416654 0.899999 0
0.416662 0.966666 0
0.583326 0.033334 0
0.58331 0.100002 0
0.583296 0.166669 0
0.583284 0.233336 0
0.583273 0.300003 0
0.583266 0.366669 0
0.583261 0.433335 0
0.583259 0.5 0
0.583261 0.566665 0
0.583266 0.633331 0
0.583273 0.699997 0
0.583284 0.766664 0
0.583296 0.833331 0
0.58331 0.899998 0
0.583326 0.966666 0
0.749987 0.0333351 0
0.749961 0.100005 0
0.749937 0.166674 0
0.749915 0.233342 0
0.749898 0.300008 0
0.749884 0.366673 0
0.749876 0.433337 0
0.749874 0.5 0
0.749876 0.566663 0
0.749884 0.633327 0
0.749898 0.699992 0
0.749915 0.766658 0
0.749937 0.833326 0
0.749961 0.899995 0
0.749987 0.966665 0
0.916644 0.033338 0
0.916601 0.100013 0
0.91656 0.166686 0
0.916524 0.233356 0
0.916494 0.300021 0
0.916472 0.366683 0
0.916458 0.433342 0
0.916454 0.5 0
0.916458 0.566658 0
0.916472 0.633317 0
0.916494 0.699979 0
0.916524 0.766644 0
0.91656 0.833314 0
0.916601 0.899987 0
0.916644 0.966662 0
1.0833 0.0333461 0
1.08322 0.100036 0
1.08315 0.166719 0
1.08309 0.233394 0
1.08304 0.300058 0
1.08301 0.366712 0
1.08298 0.433358 0
1.08298 0.5 0
1.08298 0.566642 0
1.08301 0.633288 0
1.08304 0.699942 0
1.08309 0.766606 0
1.08315 0.833281 0
1.08322 0.899964 0
1.0833 0.966654 0
1.24994 0.0333682 0
1.24981 0.100098 0
1.2497 0.16681 0
1.24959 0.233497 0
1.24951 0.300156 0
1.24945 0.366788 0
1.24942 0.433399 0
1.2494 0.5 0
1.24942 0.566601 0
1.24945 0.633212 0
1.24951 0.699844 0
1.24959 0.766503 0
1.2497 0.83319 0
1.24981 0.899902 0
1.24994 0.966632 0
1.41656 0.0334298 0
1.41634 0.10027 0
1.41615 0.16706 0
1.41598 0.233778 0
1.41585 0.300419 0
1.41575 0.36699 0
1.41569 0.433509 0
1.41567 0.5 0
1.41569 0.566491 0
1.41575 0.63301 0
1.41585 0.699581 0
1.41598 0.766222 0
1.41615 0.83294 0
1.41634 0.89973 0
1.41656 0.96657 0
1.58313 0.0336075 0
1.58275 0.10076 0
1.58242 0.167751 0
1.58215 0.234537 0
1.58195 0.301115 0
1.58181 0.367517 0
1.58173 0.433791 0
1.58171 0.5 0
1.58173 0.566209 0
1.58181 0.632483 0
1.58195 0.698885 0
1.58215 0.765463 0
1.58242 0.832249 0
1.58275 0.89924 0
1.58313 0.966392 0
1.74959 0.0341677 0
1.74885 0.102235 0
1.74829 0.169714 0
1.74791 0.236575 0
1.74766 0.302905 0
1.74751 0.368829 0
1.74744 0.434482 0
1.74741 0.5 0
1.74744 0.565518 0
1.74751 0.631171 0
1.74766 0.697095 0
1.74791 0.763425 0
1.74829 0.830286 0
1.74885 0.897765 0
1.74959 0.965832 0
1.91555 0.0363295 0
1.91388 0.107253 0
1.91312 0.175401 0
1.91283 0.241837 0
1.91276 0.307169 0
1.91277 0.371793 0
1.9128 0.435995 0
1.91281 0.5 0
1.9128 0.564005 0
1.91277 0.628207 0
1.91276 0.692831 0
1.91283 0.758163 0
1.91312 0.824599 0
1.91388 0.892747 0
1.91555 0.963671 0
2.07838 0.0591504 0
2.07417 0.125973 0
2.07554 0.190391 0
2.07663 0.253364 0
2.07743 0.315525 0
2.07798 0.377223 0
2.07829 0.438667 0
2.0784 0.5 0
2.07829 0.561333 0
2.07798 0.622777 0
2.07743 0.684475 0
2.07663 0.746636 0
2.07554 0.809609 0
2.07417 0.874027 0
2.07838 0.94085 0
2.24384 0.096456 0
2.23911 0.153168 0
2.24152 0.210396 0
2.24318 0.267878 0
2.24431 0.325632 0
2.24503 0.383617 0
2.24544 0.441767 0
2.24557 0.5 0
2.24544 0.558233 0
2.24503 0.616383 0
2.24431 0.674368 0
2.24318 0.732122 0
2.24152 0.789604 0
2.23911 0.846832 0
2.24384 0.903544 0
2.41462 0.118677 0
2.41292 0.170231 0
2.41356 0.223198 0
2.41406 0.277268 0
2.41444 0.332207 0
2.4147 0.387788 0
2.41485 0.44379 0
2.4149 0.5 0
2.41485 0.55621 0
2.4147 0.612212 0
2.41444 0.667793 0
2.41406 0.722732 0
2.41356 0.776802 0
2.41292 0.829769 0
2.41462 0.881323 0
2.58538 0.118677 0
2.58708 0.170231 0
2.58644 0.223198 0
2.58594 0.277268 0
2.58556 0.332207 0
2.5853 0.387788 0
2.58515 0.44379 0
2.5851 0.5 0
2.58515 0.55621 0
2.5853 0.612212 0
2.58556 0.667793 0
2.58594 0.722732 0
2.58644 0.776802 0
2.58708 0.829769 0
2.58538 0.881323 0
2.75616 0.096456 0
2.76089 0.153168 0
2.75848 0.210396 0
2.75682 0.267878 0
2.75569 0.325632 0
2.75497 0.383617 0
2.75456 0.441767 0
2.75443 0.5 0
2.75456 0.558233 0
2.75497 0.616383 0
2.75569 0.674368 0
2.75682 0.732122 0
2.75848 0.789604 0
2.76089 0.846832 0
2.75616 0.903544 0
2.92162 0.0591504 0
2.92583 0.125973 0
2.92446 0.190391 0
2.92337 0.253364 0
2.92257 0.315525 0
2.92202 0.377223 0
2.92171 0.438667 0
2.9216 0.5 0
2.92171 0.561333 0
2.92202 0.622777 0
2.92257 0.684475 0
2.92337 0.746636 0
2.92446 0.809609 0
2.92583 0.874027 0
2.92162 0.94085 0
3.08445 0.0363295 0
3.08612 0.107253 0
3.08688 0.175401 0
3.08717 0.241837 0
3.08724 0.307169 0
3.08723 0.371793 0
3.0872 0.435995 0
3.08719 0.5 0
3.0872 0.564005 0
3.08723 0.628207 0
3.08724 0.692831 0
3.08717 0.758163 0
3.08688 0.824599 0
3.08612 0.892747 0
3.08445 0.963671 0
3.25041 0.0341677 0
3.25115 0.102235 0
3.25171 0.169714 0
3.25209 0.236575 0
3.25234 0.302905 0
3.25249 0.368829 0
3.25256 0.434482 0
3.25259 0.5 0
3.25256 0.565518 0
3.25249 0.631171 0
3.25234 0.697095 0
3.25209 0.763425 0
3.25171 0.830286 0
3.25115 0.897765 0
3.25041 0.965832 0
3.41687 0.0336075 0
3.41725 0.10076 0
3.41758 0.167751 0
3.41785 0.234537 0
3.41805 0.301115 0
3.41819 0.367517 0
3.41827 0.433791 0
3.41829 0.5 0
3.41827 0.566209 0
3.41819 0.632483 0
3.41805 0.698885 0
3.41785 0.765463 0
3.41758 0.832249 0
3.41725 0.89924 0
3.41687 0.966392 0
3.58344 0.0334298 0
3.58366 0.10027 0
3.58385 0.16706 0
3.58402 0.233778 0
3.58415 0.300419 0
3.58425 0.36699 0
3.58431 0.433509 0
3.58433 0.5 0
3.58431 0.566491 0
3.58425 0.63301 0
3.58415 0.699581 0
3.58402 0.766222 0
3.58385 0.83294 0
3.58366 0.89973 0
3.58344 0.96657 0
3.75006 0.0333682 0
3.75019 0.100098 0
3.7503 0.16681 0
3.75041 0.233497 0
3.75049 0.300156 0
3.75055 0.366788 0
3.75058 0.433399 0
3.7506 0.5 0
3.75058 0.566601 0
3.75055 0.633212 0
3.75049 0.699844 0
3.75041 0.766503 0
3.7503 0.83319 0
3.75019 0.899902 0
3.75006 0.966632 0
3.9167 0.0333461 0
3.91678 0.100036 0
3.91685 0.166719 0
3.91691 0.233394 0
3.91696 0.300058 0
3.91699 0.366712 0
3.91702 0.433358 0
3.91702 0.5 0
3.91702 0.566642 0
3.91699 0.633288 0
3.91696 0.699942 0
3.91691 0.766606 0
3.91685 0.833281 0
3.91678 0.899964 0
3.9167 0.966654 0
4.08336 0.033338 0
4.0834 0.100013 0
4.08344 0.166686 0
4.08348 0.233356 0
4.08351 0.300021 0
4.08353 0.366683 0
4.08354 0.433342 0
4.08355 0.5 0
4.08354 0.566658 0
4.08353 0.633317 0
4.08351 0.699979 0
4.08348 0.766644 0
4.08344 0.833314 0
4.0834 0.899987 0
4.08336 0.966662 0
4.25001 0.0333351 0
4.25004 0.100005 0
4.25006 0.166674 0
4.25008 0.233342 0
4.2501 0.300008 0
4.25012 0.366673 0
4.25012 0.433337 0
4.25013 0.5 0
4.25012 0.566663 0
4.25012 0.633327 0
4.2501 0.699992 0
4.25008 0.766658 0
4.25006 0.833326 0
4.25004 0.899995 0
4.25001 0.966665 0
4.41667 0.033334 0
4.41669 0.100002 0
4.4167 0.166669 0
4.41672 0.233336 0
4.41673 0.300003 0
4.41673 0.366669 0
4.41674 0.433335 0
4.41674 0.5 0
4.41674 0.566665 0
4.41673 0.633331 0
4.41673 0.699997 0
4.41672 0.766664 0
4.4167 0.833331 0
4.41669 0.899998 0
4.41667 0.966666 0
4.58334 0.0333336 0
4.58335 0.100001 0
4.58335 0.166668 0
4.58336 0.233334 0
4.58337 0.300001 0
4.58337 0.366667 0
4.58337 0.433334 0
4.58338 0.5 0
4.58337 0.566666 0
4.58337 0.633333 0
4.58337 0.699999 0
4.58336 0.766666 0
4.58335 0.833332 0
4.58335 0.899999 0
4.58334 0.966666 0
4.75 0.0333334 0
4.75001 0.1 0
4.75001 0.166667 0
4.75001 0.233334 0
4.75002 0.3 0
4.75002 0.366667 0
4.75002 0.433333 0
4.75002 0.5 0
4.75002 0.566667 0
4.75002 0.633333 0
4.75002 0.7 0
4.75001 0.766666 0
4.75001 0.833333 0
4.75001 0.9 0
4.75 0.966667 0
4.91667 0.0333334 0
4.91667 0.1 0
4.91667 0.166667 0
4.91667 0.233333 0
4.91667 0.3 0
4.91667 0.366667 0
4.91667 0.433333 0
4.91667 0.5 0
4.91667 0.566667 0
4.91667 0.633333 0
4.91667 0.7 0
4.91667 0.766667 0
4.91667 0.833333 0
4.91667 0.9 0
4.91667 0.966667 0
POINT_DATA 450
SCALARS pressure float 1
LOOKUP_TABLE default
95147.8
95148.1
95148
95148
95148
95148
95148
95148
95148
95148
95148
95148
95148
95148.1
95147.8
95188.1
95188.2
95188.1
95188.1
95188.1
95188.1
95188.1
95188.1
95188.1
95188.1
95188.1
95188.1
95188.1
95188.2
95188.1
95191.6
95191.6
95191.6
95191.6
95191.6
95191.6
95191.6
95191.6
95191.6
95191.6
95191.6
95191.6
95191.6
95191.6
95191.6
95191.8
95191.8
95191.8
95191.8
95191.8
95191.8
95191.8
95191.8
95191.8
95191.8
95191.8
95191.8
95191.8
95191.8
95191.8
95191.8
95191.8
95191.8
95191.8
95191.8
95191.8
95191.8
95191.8
95191.8
95191.8
95191.8
95191.8
95191.8
95191.8
95191.8
95191.8
95191.8
95191.8
95191.8
95191.8
95191.8
95191.8
95191.8
95191.8
95191.8
95191.8
95191.8
95191.8
95191.8
95191.8
95191.8
95191.8
95191.8
95191.8
95191.8
95191.8
95191.8
95191.8
95191.8
95191.8
95191.8
95191.8
95191.8
95191.8
95191.8
95191.8
95191.7
95191.8
95191.8
95191.8
95191.8
95191.8
95191.8
95191.8
95191.8
95191.8
95191.8
95191.8
95191.7
95191.8
95191.8
95191.7
95191.8
95191.8
95191.8
95191.8
95191.8
95191.8
95191.8
95191.8
95191.8
95191.8
95191.8
95191.7
95191.8
95191.6
95191.6
95191.8
95191.8
95191.8
95191.8
95191.8
95191.8
95191.8
95191.8
95191.8
95191.8
95191.8
95191.6
95191.6
95206.2
95191.3
95191.7
95191.8
95191.8
95191.8
95191.8
95191.8
95191.8
95191.8
95191.8
95191.8
95191.7
95191.3
95206.3
95122.7
95191.9
95190.3
95191.7
95191.8
95191.8
95191.8
95191.8
95191.8
95191.8
95191.8
95191.7
95190.3
95192
95119.7
101374
95332.9
95255.4
95191.9
95191.6
95191.8
95191.8
95191.8
95191.8
95191.8
95191.6
95191.9
95255.3
95329.4
101370
100380
95329.8
95265.8
95192.1
95191.6
95191.8
95191.8
95191.8
95191.8
95191.8
95191.6
95192
95265.8
95327.8
100381
97430.3
95253.7
95230.4
95192
95191.7
95191.8
95191.8
95191.8
95191.8
95191.8
95191.7
95192
95230.4
95253.6
97431.3
93197.7
95137.5
95158.8
95191.4
95191.8
95191.8
95191.8
95191.8
95191.8
95191.8
95191.8
95191.4
95158.7
95137.5
93195.7
90252.1
95078.9
95120.3
95190.9
95191.9
95191.8
95191.8
95191.8
95191.8
95191.8
95191.9
95191
95120.2
95080.7
90243.9
89028.1
95076
95125.4
95191.1
95191.9
95191.8
95191.8
95191.8
95191.8
95191.8
95191.9
95191.1
95125.3
95079.5
89019.1
95064.4
95188.7
95190.1
95191.8
95191.8
95191.8
95191.8
95191.8
95191.8
95191.8
95191.8
95191.8
95190.2
95188.8
95067.3
95176.5
95192.3
95191.8
95191.8
95191.8
95191.8
95191.8
95191.8
95191.8
95191.8
95191.8
95191.8
95191.8
95192.3
95176.5
95191.2
95192
95191.8
95191.8
95191.8
95191.8
95191.8
95191.8
95191.8
95191.8
95191.8
95191.8
95191.8
95192
95191.2
95191.7
95191.8
95191.8
95191.8
95191.8
95191.8
95191.8
95191.8
95191.8
95191.8
95191.8
95191.8
95191.8
95191.8
95191.7
95191.7
95191.8
95191.8
95191.8
95191.8
95191.8
95191.8
95191.8
95191.8
95191.8
95191.8
95191.8
95191.8
95191.8
95191.7
95191.8
95191.8
95191.8
95191.8
95191.8
95191.8
95191.8
95191.8
95191.8
95191.8
95191.8
95191.8
95191.8
95191.8
95191.8
95191.8
95191.8
95191.8
95191.8
95191.8
95191.8
95191.8
95191.8
95191.8
95191.8
95191.8
95191.8
95191.8
95191.8
95191.8
95191.8
95191.8
95191.8
95191.8
95191.8
95191.8
95191.8
95191.8
95191.8
95191.8
95191.8
95191.8
95191.8
95191.8
95191.8
95191.8
95191.8
95191.8
95191.8
95191.8
95191.8
95191.8
95191.8
95191.8
95191.8
95191.8
95191.8
95191.8
95191.8
95191.8
95191.9
95191.9
95191.9
95191.9
95191.9
95191.9
95191.9
95191.9
95191.9
95191.9
95191.9
95191.9
95191.9
95191.9
95191.9
95188.7
95188.7
95188.7
95188.7
95188.7
95188.7
95188.7
95188.7
95188.7
95188.7
95188.7
95188.7
95188.7
95188.7
95188.7
95203.8
95203.8
95203.8
95203.8
95203.8
95203.8
95203.8
95203.8
95203.8
95203.8
95203.8
95203.8
95203.8
95203.8
95203.8
SCALARS density float 1
LOOKUP_TABLE default
1.22444
1.22444
1.22444
1.22444
1.22444
1.22444
1.22444
1.22444
1.22444
1.22444
1.22444
1.22444
1.22444
1.22444
1.22444
1.22497
1.22497
1.22497
1.22497
1.22497
1.22497
1.22497
1.22497
1.22497
1.22497
1.22497
1.22497
1.22497
1.22497
1.22497
1.225
1.225
1.225
1.225
1.225
1.225
1.225
1.225
1.225
1.225
1.225
1.225
1.225
1.225
1.225
1.225
1.225
1.225
1.225
1.225
1.225
1.225
1.225
1.225
1.225
1.225
1.225
1.225
1.225
1.225
1.225
1.225
1.225
1.225
1.225
1.225
1.225
1.225
1.225
1.225
1.225
1.225
1.225
1.225
1.225
1.225
1.225
1.225
1.225
1.225
1.225
1.225
1.225
1.225
1.225
1.225
1.225
1.225
1.225
1.225
1.225
1.225
1.225
1.225
1.225
1.225
1.225
1.225
1.225
1.225
1.225
1.225
1.225
1.225
1.225
1.225
1.225
1.225
1.225
1.225
1.225
1.225
1.225
1.225
1.225
1.225
1.225
1.225
1.225
1.225
1.225
1.225
1.225
1.225
1.225
1.225
1.225
1.225
1.225
1.225
1.225
1.225
1.225
1.225
1.225
1.225
1.225
1.225
1.225
1.225
1.225
1.225
1.225
1.225
1.225
1.225
1.225
1.225
1.225
1.225
1.22513
1.225
1.225
1.225
1.225
1.225
1.225
1.225
1.225
1.225
1.225
1.225
1.225
1.225
1.22513
1.22438
1.225
1.22499
1.225
1.225
1.225
1.225
1.225
1.225
1.225
1.225
1.225
1.22499
1.225
1.22435
1.28092
1.22634
1.22558
1.225
1.225
1.225
1.225
1.225
1.225
1.225
1.225
1.225
1.22558
1.2263
1.28094
1.2721
1.22629
1.22568
1.225
1.225
1.225
1.225
1.225
1.225
1.225
1.225
1.225
1.22568
1.22628
1.27215
1.24548
1.22557
1.22535
1.225
1.225
1.225
1.225
1.225
1.225
1.225
1.225
1.225
1.22535
1.22557
1.24549
1.2066
1.2245
1.2247
1.225
1.225
1.225
1.225
1.225
1.225
1.225
1.225
1.225
1.2247
1.2245
1.20658
1.17916
1.22399
1.22434
1.22499
1.225
1.225
1.225
1.225
1.225
1.225
1.225
1.22499
1.22434
1.22401
1.17912
1.16772
1.22398
1.22439
1.22499
1.225
1.225
1.225
1.225
1.225
1.225
1.225
1.22499
1.22439
1.22401
1.1677
1.22382
1.22497
1.22499
1.225
1.225
1.225
1.225
1.225
1.225
1.225
1.225
1.225
1.22499
1.22497
1.22385
1.22486
1.225
1.225
1.225
1.225
1.225
1.225
1.225
1.225
1.225
1.225
1.225
1.225
1.225
1.22486
1.225
1.225
1.225
1.225
1.225
1.225
1.225
1.225
1.225
1.225
1.225
1.225
1.225
1.225
1.225
1.225
1.225
1.225
1.225
1.225
1.225
1.225
1.225
1.225
1.225
1.225
1.225
1.225
1.225
1.225
1.225
1.225
1.225
1.225
1.225
1.225
1.225
1.225
1.225
1.225
1.225
1.225
1.225
1.225
1.225
1.225
1.225
1.225
1.225
1.225
1.225
1.225
1.225
1.225
1.225
1.225
1.225
1.225
1.225
1.225
1.225
1.225
1.225
1.225
1.225
1.225
1.225
1.225
1.225
1.225
1.225
1.225
1.225
1.225
1.225
1.225
1.225
1.225
1.225
1.225
1.225
1.225
1.225
1.225
1.225
1.225
1.225
1.225
1.225
1.225
1.225
1.225
1.225
1.225
1.225
1.225
1.225
1.225
1.225
1.225
1.225
1.225
1.225
1.225
1.225
1.225
1.225
1.225
1.225
1.225
1.225
1.225
1.225
1.225
1.225
1.225
1.225
1.225
1.225
1.225
1.22495
1.22495
1.22495
1.22495
1.22495
1.22495
1.22495
1.22495
1.22495
1.22495
1.22495
1.22495
1.22495
1.22495
1.22495
1.2249
1.2249
1.2249
1.2249
1.2249
1.2249
1.2249
1.2249
1.2249
1.2249
1.2249
1.2249
1.2249
1.2249
1.2249
SCALARS u-velocity float 1
LOOKUP_TABLE default
98.695
98.695
98.695
98.695
98.695
98.695
98.695
98.695
98.695
98.695
98.695
98.695
98.695
98.695
98.695
98.9403
98.9404
98.9403
98.9403
98.9403
98.9403
98.9403
98.9403
98.9403
98.9403
98.9403
98.9403
98.9403
98.9404
98.9403
98.9499
98.9499
98.9499
98.9499
98.9499
98.9499
98.9499
98.9499
98.9499
98.9499
98.9499
98.9499
98.9499
98.9499
98.9499
98.9502
98.9502
98.9502
98.9502
98.9502
98.9502
98.9502
98.9502
98.9502
98.9502
98.9502
98.9502
98.9502
98.9502
98.9502
98.9503
98.9503
98.9503
98.9503
98.9503
98.9503
98.9503
98.9503
98.9503
98.9503
98.9503
98.9503
98.9503
98.9503
98.9503
98.9503
98.9503
98.9503
98.9503
98.9503
98.9503
98.9503
98.9503
98.9503
98.9503
98.9503
98.9503
98.9503
98.9503
98.9503
98.9503
98.9503
98.9503
98.9503
98.9503
98.9503
98.9503
98.9503
98.9503
98.9503
98.9503
98.9503
98.9503
98.9503
98.9503
98.9503
98.9503
98.9503
98.9503
98.9503
98.9503
98.9503
98.9503
98.9503
98.9503
98.9503
98.9503
98.9503
98.9503
98.9503
98.9502
98.9503
98.9503
98.9503
98.9503
98.9503
98.9503
98.9503
98.9503
98.9503
98.9503
98.9503
98.9503
98.9503
98.9502
98.9491
98.9503
98.9503
98.9503
98.9503
98.9503
98.9503
98.9503
98.9503
98.9503
98.9503
98.9503
98.9503
98.9503
98.9491
98.9674
98.9503
98.9502
98.9503
98.9503
98.9503
98.9503
98.9503
98.9503
98.9503
98.9503
98.9503
98.9502
98.9503
98.9677
98.0862
98.9487
98.9463
98.9502
98.9503
98.9503
98.9503
98.9503
98.9503
98.9503
98.9503
98.9502
98.9463
98.949
98.0846
97.1535
98.5824
98.9446
98.9491
98.9503
98.9503
98.9503
98.9503
98.9503
98.9503
98.9503
98.9491
98.9448
98.5818
97.2828
98.7787
98.6775
98.9509
98.9491
98.9503
98.9503
98.9503
98.9503
98.9503
98.9503
98.9503
98.9491
98.9509
98.6766
98.8616
99.7947
98.9047
98.9565
98.95
98.9503
98.9503
98.9503
98.9503
98.9503
98.9503
98.9503
98.95
98.9565
98.9045
99.8093
99.8581
98.9157
98.9564
98.95
98.9503
98.9503
98.9503
98.9503
98.9503
98.9503
98.9503
98.95
98.9564
98.9155
99.8716
99.1917
98.6928
98.9496
98.949
98.9503
98.9503
98.9503
98.9503
98.9503
98.9503
98.9503
98.949
98.9496
98.6926
99.2771
97.8334
98.5603
98.9422
98.9491
98.9503
98.9503
98.9503
98.9503
98.9503
98.9503
98.9503
98.9491
98.9423
98.561
97.9747
98.0495
98.939
98.9462
98.9503
98.9503
98.9503
98.9503
98.9503
98.9503
98.9503
98.9503
98.9503
98.9462
98.9394
98.0507
98.9295
98.95
98.9503
98.9503
98.9503
98.9503
98.9503
98.9503
98.9503
98.9503
98.9503
98.9503
98.9503
98.95
98.9298
98.9491
98.9503
98.9503
98.9503
98.9503
98.9503
98.9503
98.9503
98.9503
98.9503
98.9503
98.9503
98.9503
98.9503
98.9491
98.9502
98.9503
98.9503
98.9503
98.9503
98.9503
98.9503
98.9503
98.9503
98.9503
98.9503
98.9503
98.9503
98.9503
98.9502
98.9503
98.9503
98.9503
98.9503
98.9503
98.9503
98.9503
98.9503
98.9503
98.9503
98.9503
98.9503
98.9503
98.9503
98.9503
98.9503
98.9503
98.9503
98.9503
98.9503
98.9503
98.9503
98.9503
98.9503
98.9503
98.9503
98.9503
98.9503
98.9503
98.9503
98.9503
98.9503
98.9503
98.9503
98.9503
98.9503
98.9503
98.9503
98.9503
98.9503
98.9503
98.9503
98.9503
98.9503
98.9503
98.9503
98.9503
98.9503
98.9503
98.9503
98.9503
98.9503
98.9503
98.9503
98.9503
98.9503
98.9503
98.9503
98.9503
98.9503
98.9502
98.9502
98.9502
98.9502
98.9502
98.9502
98.9502
98.9502
98.9502
98.9502
98.9502
98.9502
98.9502
98.9502
98.9502
98.9505
98.9505
98.9505
98.9505
98.9505
98.9505
98.9505
98.9505
98.9505
98.9505
98.9505
98.9505
98.9505
98.9505
98.9505
98.9441
98.9441
98.9441
98.9441
98.9441
98.9441
98.9441
98.9441
98.9441
98.9441
98.9441
98.9441
98.9441
98.9441
98.9441
99.1974
99.1974
99.1974
99.1974
99.1974
99.1974
99.1974
99.1974
99.1974
99.1974
99.1974
99.1974
99.1974
99.1974
99.1974
SCALARS v-velocity float 1
LOOKUP_TABLE default
0.00480282
-8.49517e-05
8.54309e-05
1.97523e-07
1.57071e-07
1.09125e-07
5.59184e-08
-1.46553e-14
-5.59184e-08
-1.09125e-07
-1.57071e-07
-1.97523e-07
-8.54309e-05
8.49517e-05
-0.00480282
0.000456559
5.29364e-06
-5.60773e-06
-1.30338e-07
-1.02885e-07
-7.10879e-08
-3.63044e-08
-4.45888e-21
3.63044e-08
7.10879e-08
1.02885e-07
1.30338e-07
5.6076e-06
-5.29351e-06
-0.000456569
3.79405e-05
1.38496e-08
-4.8358e-08
-1.37383e-08
-1.08447e-08
-7.49305e-09
-3.82664e-09
-2.37581e-22
3.82664e-09
7.49305e-09
1.08447e-08
1.37383e-08
4.83547e-08
-1.38464e-08
-3.79407e-05
-8.24104e-06
8.52418e-08
-8.88272e-08
-1.48983e-09
-1.17997e-09
-8.1727e-10
-4.18018e-10
2.09647e-23
4.18018e-10
8.1727e-10
1.17997e-09
1.48983e-09
8.88272e-08
-8.52418e-08
8.24104e-06
-1.93507e-05
2.36579e-07
-2.36142e-07
9.01764e-11
7.09208e-11
4.90672e-11
2.507e-11
-4.25911e-29
-2.507e-11
-4.90672e-11
-7.09208e-11
-9.01764e-11
2.36142e-07
-2.36579e-07
1.93507e-05
-5.2607e-05
6.4312e-07
-6.42148e-07
3.40358e-12
-2.38411e-16
2.38446e-16
-2.41282e-16
1.50642e-23
2.38689e-16
-2.38446e-16
2.38411e-16
-3.40358e-12
6.42148e-07
-6.4312e-07
5.2607e-05
-0.000143471
1.75478e-06
-1.75048e-06
2.53747e-11
-2.57318e-18
5.30601e-18
1.4663e-14
-1.6811e-21
-1.44239e-14
-5.30124e-18
2.57318e-18
-2.53747e-11
1.75048e-06
-1.75478e-06
0.000143471
-0.000393981
4.8198e-06
-4.8011e-06
1.90211e-10
-2.09834e-18
-2.39627e-16
2.39096e-16
1.12764e-19
-1.49211e-14
2.39329e-16
2.07687e-18
-1.90211e-10
4.8011e-06
-4.8198e-06
0.000393981
-0.00109902
1.34287e-05
-1.33493e-05
1.46116e-09
2.41689e-16
1.47106e-14
1.75279e-18
4.46221e-21
-2.41588e-16
-1.47133e-14
-2.39053e-16
-1.46116e-09
1.33493e-05
-1.34287e-05
0.00109902
-0.00319618
3.90732e-05
-3.82953e-05
1.18516e-08
-1.47458e-14
2.47027e-16
-1.39148e-20
1.1017e-22
-2.68994e-18
-3.99368e-19
1.45031e-14
-1.18516e-08
3.82953e-05
-3.90732e-05
0.00319618
-0.0090234
0.00276594
-0.000108906
1.08769e-07
-2.4585e-16
-2.4666e-16
1.90221e-19
-2.35365e-20
5.4072e-18
-1.49652e-14
1.51208e-14
-1.08769e-07
0.000108906
-0.00277981
0.00902553
-0.145702
-0.0358393
-0.000288463
0.000110584
2.77327e-16
1.53188e-14
-1.20604e-17
2.83896e-18
-1.7067e-19
8.95125e-18
2.51663e-16
-0.000110584
0.000267691
0.0364743
0.145444
3.29866
1.74984
0.0107121
0.0104498
2.30022e-05
2.95571e-16
-5.41103e-19
-2.63835e-16
2.10218e-17
-1.5995e-14
-2.30022e-05
-0.0104425
-0.00990115
-1.74848
-3.2667
3.09109
1.79702
0.0121552
0.0128223
2.22942e-05
3.55739e-18
6.54849e-18
1.65794e-14
7e-18
-2.64704e-16
-2.22942e-05
-0.0128127
-0.0116394
-1.79676
-3.07607
1.28053
0.876789
0.00687322
0.00666355
3.92414e-06
5.16924e-20
7.62909e-20
2.66767e-16
7.58677e-20
1.17508e-17
-3.92414e-06
-0.00666102
-0.00682555
-0.877005
-1.27945
-0.936463
-0.757911
-0.00718822
-0.00704144
3.92414e-06
-2.83249e-18
2.82436e-18
2.80538e-18
2.82386e-18
-1.45915e-17
-3.92414e-06
0.00704398
0.00716965
0.758588
0.936367
-1.65601
-1.7357
-0.0195876
-0.0131826
2.22942e-05
2.64608e-16
-2.63485e-16
-2.68744e-19
-2.63932e-16
-8.29446e-20
-2.22942e-05
0.0131922
0.0191234
1.73834
1.64137
-1.09978
-1.81324
-0.0209006
-0.0104351
2.30022e-05
-1.60134e-14
1.59746e-14
1.38191e-17
1.59957e-14
-2.11712e-17
-2.30022e-05
0.0104423
0.020051
1.8157
1.06116
0.0573901
-0.0444404
-0.000420484
0.000110584
2.48858e-16
-2.58781e-16
2.57974e-16
2.4011e-19
2.61052e-16
-3.64943e-19
-2.61212e-20
-0.000110584
0.000399671
0.0438401
-0.0583563
0.0118917
-0.00286599
0.000149639
1.08769e-07
-1.48734e-14
-1.12443e-17
2.79325e-18
-2.63912e-20
-2.41573e-16
7.96235e-20
1.57688e-19
-1.08769e-07
-0.000149639
0.00285222
-0.011895
0.00350279
-4.31363e-05
4.39649e-05
1.18516e-08
-4.80446e-16
-2.00661e-19
2.27463e-20
7.66244e-19
1.48084e-14
-2.19898e-18
-4.00291e-18
-1.18516e-08
-4.39649e-05
4.31363e-05
-0.00350279
0.00119426
-1.51359e-05
1.51152e-05
1.46114e-09
1.44496e-14
1.26953e-18
4.78504e-23
1.1576e-20
2.41346e-16
-5.41427e-20
2.5368e-18
-1.46116e-09
-1.51152e-05
1.51359e-05
-0.00119426
0.000426433
-5.4192e-06
5.40608e-06
1.90211e-10
1.49078e-14
-2.09777e-18
-2.11304e-20
1.04345e-22
2.64017e-18
2.58412e-18
-2.38876e-16
-1.90211e-10
-5.40608e-06
5.4192e-06
-0.000426433
0.000155034
-1.97035e-06
1.96647e-06
2.53742e-11
2.38832e-16
2.3868e-16
2.56849e-18
9.8102e-31
-2.56822e-18
-2.38497e-16
1.46596e-14
-2.53744e-11
-1.96647e-06
1.97035e-06
-0.000155034
5.68068e-05
-7.21628e-07
7.20644e-07
3.40334e-12
2.43693e-16
-1.4655e-14
-2.3595e-16
2.07674e-24
2.38535e-16
1.4655e-14
1.06389e-19
-3.418e-12
-7.20644e-07
7.21628e-07
-5.68068e-05
2.08889e-05
-2.65116e-07
2.65102e-07
9.01764e-11
7.09206e-11
4.90523e-11
2.50847e-11
-8.58043e-23
-2.50849e-11
-4.90523e-11
-7.09206e-11
-9.01764e-11
-2.65102e-07
2.65116e-07
-2.08889e-05
6.59332e-06
-9.65674e-08
9.86898e-08
8.85396e-10
6.98382e-10
4.823e-10
2.46188e-10
2.38383e-16
-2.46188e-10
-4.823e-10
-6.98368e-10
-8.85396e-10
-9.86898e-08
9.65674e-08
-6.59332e-06
-3.00849e-05
-5.51701e-08
1.95906e-08
-1.42525e-08
-1.12862e-08
-7.81661e-09
-3.99776e-09
9.05974e-22
3.99776e-09
7.81661e-09
1.12862e-08
1.42525e-08
-1.95906e-08
5.51701e-08
3.00849e-05
0.000338112
5.55611e-06
-5.31087e-06
1.01912e-07
8.07953e-08
5.60061e-08
2.86593e-08
-2.38357e-16
-2.86593e-08
-5.60061e-08
-8.07953e-08
-1.01912e-07
5.31087e-06
-5.55611e-06
-0.000338112
-0.00130156
4.72658e-05
-4.72608e-05
1.58815e-10
-4.39181e-10
-5.95816e-10
-3.96782e-10
4.48983e-22
3.96782e-10
5.95845e-10
4.39151e-10
-1.58815e-10
4.72608e-05
-4.72658e-05
0.00130156
SCALARS Mach float 1
LOOKUP_TABLE default
29.5322
29.5322
29.5322
29.5322
29.5322
29.5322
29.5322
29.5322
29.5322
29.5322
29.5322
29.5322
29.5322
29.5322
29.5322
29.6794
29.6794
29.6794
29.6794
29.6794
29.6794
29.6794
29.6794
29.6794
29.6794
29.6794
29.6794
29.6794
29.6794
29.6794
29.6849
29.6849
29.6849
29.6849
29.6849
29.6849
29.6849
29.6849
29.6849
29.6849
29.6849
29.6849
29.6849
29.6849
29.6849
29.6851
29.6851
29.6851
29.6851
29.6851
29.6851
29.6851
29.6851
29.6851
29.6851
29.6851
29.6851
29.6851
29.6851
29.6851
29.6851
29.6851
29.6851
29.6851
29.6851
29.6851
29.6851
29.6851
29.6851
29.6851
29.6851
29.6851
29.6851
29.6851
29.6851
29.6851
29.6851
29.6851
29.6851
29.6851
29.6851
29.6851
29.6851
29.6851
29.6851
29.6851
29.6851
29.6851
29.6851
29.6851
29.6851
29.6851
29.6851
29.6851
29.6851
29.6851
29.6851
29.6851
29.6851
29.6851
29.6851
29.6851
29.6851
29.6851
29.6851
29.6851
29.6851
29.6851
29.6851
29.6851
29.6851
29.6851
29.6851
29.6851
29.6851
29.6851
29.6851
29.6851
29.6851
29.6851
29.6851
29.6851
29.6851
29.6851
29.6851
29.6851
29.6851
29.6851
29.6851
29.6851
29.6851
29.6851
29.6851
29.6851
29.6851
29.6844
29.6851
29.6851
29.6851
29.6851
29.6851
29.6851
29.6851
29.6851
29.6851
29.6851
29.6851
29.6851
29.6851
29.6844
29.6947
29.6851
29.6851
29.6851
29.6851
29.6851
29.6851
29.6851
29.6851
29.6851
29.6851
29.6851
29.6851
29.6851
29.6949
29.1722
29.6841
29.6828
29.6851
29.6851
29.6851
29.6851
29.6851
29.6851
29.6851
29.6851
29.6851
29.6828
29.6843
29.1713
28.3891
29.4683
29.6789
29.6844
29.6851
29.6851
29.6851
29.6851
29.6851
29.6851
29.6851
29.6844
29.6789
29.4681
28.4648
29.3849
29.5256
29.6822
29.6844
29.6851
29.6851
29.6851
29.6851
29.6851
29.6851
29.6851
29.6844
29.6822
29.5252
29.4344
30.0984
29.6574
29.6871
29.6849
29.6851
29.6851
29.6851
29.6851
29.6851
29.6851
29.6851
29.6849
29.6871
29.6573
30.1072
30.3263
29.6686
29.6903
29.6849
29.6851
29.6851
29.6851
29.6851
29.6851
29.6851
29.6851
29.6849
29.6903
29.6684
30.3346
30.0653
29.5453
29.6879
29.6844
29.6851
29.6851
29.6851
29.6851
29.6851
29.6851
29.6851
29.6844
29.6879
29.5451
30.1178
29.3002
29.4672
29.6832
29.6844
29.6851
29.6851
29.6851
29.6851
29.6851
29.6851
29.6851
29.6844
29.6833
29.4675
29.3858
29.1526
29.6785
29.6827
29.6851
29.6851
29.6851
29.6851
29.6851
29.6851
29.6851
29.6851
29.6851
29.6827
29.6787
29.1532
29.6733
29.6849
29.6851
29.6851
29.6851
29.6851
29.6851
29.6851
29.6851
29.6851
29.6851
29.6851
29.6851
29.6849
29.6735
29.6844
29.6851
29.6851
29.6851
29.6851
29.6851
29.6851
29.6851
29.6851
29.6851
29.6851
29.6851
29.6851
29.6851
29.6844
29.6851
29.6851
29.6851
29.6851
29.6851
29.6851
29.6851
29.6851
29.6851
29.6851
29.6851
29.6851
29.6851
29.6851
29.6851
29.6851
29.6851
29.6851
29.6851
29.6851
29.6851
29.6851
29.6851
29.6851
29.6851
29.6851
29.6851
29.6851
29.6851
29.6851
29.6851
29.6851
29.6851
29.6851
29.6851
29.6851
29.6851
29.6851
29.6851
29.6851
29.6851
29.6851
29.6851
29.6851
29.6851
29.6851
29.6851
29.6851
29.6851
29.6851
29.6851
29.6851
29.6851
29.6851
29.6851
29.6851
29.6851
29.6851
29.6851
29.6851
29.6851
29.6851
29.6851
29.6851
29.6851
29.6851
29.6851
29.6851
29.6851
29.6851
29.6851
29.6851
29.6851
29.6851
29.6851
29.6851
29.6851
29.6851
29.6851
29.6851
29.6851
29.6851
29.6851
29.6851
29.6851
29.6851
29.6851
29.6851
29.6851
29.6851
29.6852
29.6852
29.6852
29.6852
29.6852
29.6852
29.6852
29.6852
29.6852
29.6852
29.6852
29.6852
29.6852
29.6852
29.6852
29.6812
29.6813
29.6813
29.6813
29.6813
29.6813
29.6813
29.6813
29.6813
29.6813
29.6813
29.6813
29.6813
29.6813
29.6812
29.8304
29.8304
29.8304
29.8304
29.8304
29.8304
29.8304
29.8304
29.8304
29.8304
29.8304
29.8304
29.8304
29.8304
29.8304
