# vtk DataFile Version 3.0
Structured Grid Example
ASCII
DATASET STRUCTURED_GRID
DIMENSIONS 15 30 1
POINTS 450 FLOAT
0.0833327 0.0333334 0
0.0833313 0.1 0
0.0833301 0.166667 0
0.083329 0.233333 0
0.0833281 0.3 0
0.0833274 0.366667 0
0.083327 0.433333 0
0.0833268 0.5 0
0.083327 0.566667 0
0.0833274 0.633333 0
0.0833281 0.7 0
0.083329 0.766667 0
0.0833301 0.833333 0
0.0833313 0.9 0
0.0833327 0.966667 0
0.249998 0.0333334 0
0.249993 0.1 0
0.249989 0.166667 0
0.249986 0.233334 0
0.249983 0.3 0
0.24998 0.366667 0
0.249979 0.433333 0
0.249979 0.5 0
0.249979 0.566667 0
0.24998 0.633333 0
0.249983 0.7 0
0.249986 0.766666 0
0.249989 0.833333 0
0.249993 0.9 0
0.249998 0.966667 0
0.416662 0.0333336 0
0.416654 0.100001 0
0.416646 0.166668 0
0.416639 0.233334 0
0.416633 0.300001 0
0.416628 0.366667 0
0.416626 0.433334 0
0.416625 0.5 0
0.416626 0.566666 0
0.416628 0.633333 0
0.416633 0.699999 0
0.416639 0.766666 0
0.416646 0.833332 0
0.416654 0.899999 0
0.416662 0.966666 0
0.583326 0.033334 0
0.58331 0.100002 0
0.583296 0.166669 0
0.583284 0.233336 0
0.583273 0.300003 0
0.583266 0.366669 0
0.583261 0.433335 0
0.583259 0.5 0
0.583261 0.566665 0
0.583266 0.633331 0
0.583273 0.699997 0
0.583284 0.766664 0
0.583296 0.833331 0
0.58331 0.899998 0
0.583326 0.966666 0
0.749987 0.0333351 0
0.749961 0.100005 0
0.749937 0.166674 0
0.749915 0.233342 0
0.749898 0.300008 0
0.749884 0.366673 0
0.749876 0.433337 0
0.749874 0.5 0
0.749876 0.566663 0
0.749884 0.633327 0
0.749898 0.699992 0
0.749915 0.766658 0
0.749937 0.833326 0
0.749961 0.899995 0
0.749987 0.966665 0
0.916644 0.033338 0
0.916601 0.100013 0
0.91656 0.166686 0
0.916524 0.233356 0
0.916494 0.300021 0
0.916472 0.366683 0
0.916458 0.433342 0
0.916454 0.5 0
0.916458 0.566658 0
0.916472 0.633317 0
0.916494 0.699979 0
0.916524 0.766644 0
0.91656 0.833314 0
0.916601 0.899987 0
0.916644 0.966662 0
1.0833 0.0333461 0
1.08322 0.100036 0
1.08315 0.166719 0
1.08309 0.233394 0
1.08304 0.300058 0
1.08301 0.366712 0
1.08298 0.433358 0
1.08298 0.5 0
1.08298 0.566642 0
1.08301 0.633288 0
1.08304 0.699942 0
1.08309 0.766606 0
1.08315 0.833281 0
1.08322 0.899964 0
1.0833 0.966654 0
1.24994 0.0333682 0
1.24981 0.100098 0
1.2497 0.16681 0
1.24959 0.233497 0
1.24951 0.300156 0
1.24945 0.366788 0
1.24942 0.433399 0
1.2494 0.5 0
1.24942 0.566601 0
1.24945 0.633212 0
1.24951 0.699844 0
1.24959 0.766503 0
1.2497 0.83319 0
1.24981 0.899902 0
1.24994 0.966632 0
1.41656 0.0334298 0
1.41634 0.10027 0
1.41615 0.16706 0
1.41598 0.233778 0
1.41585 0.300419 0
1.41575 0.36699 0
1.41569 0.433509 0
1.41567 0.5 0
1.41569 0.566491 0
1.41575 0.63301 0
1.41585 0.699581 0
1.41598 0.766222 0
1.41615 0.83294 0
1.41634 0.89973 0
1.41656 0.96657 0
1.58313 0.0336075 0
1.58275 0.10076 0
1.58242 0.167751 0
1.58215 0.234537 0
1.58195 0.301115 0
1.58181 0.367517 0
1.58173 0.433791 0
1.58171 0.5 0
1.58173 0.566209 0
1.58181 0.632483 0
1.58195 0.698885 0
1.58215 0.765463 0
1.58242 0.832249 0
1.58275 0.89924 0
1.58313 0.966392 0
1.74959 0.0341677 0
1.74885 0.102235 0
1.74829 0.169714 0
1.74791 0.236575 0
1.74766 0.302905 0
1.74751 0.368829 0
1.74744 0.434482 0
1.74741 0.5 0
1.74744 0.565518 0
1.74751 0.631171 0
1.74766 0.697095 0
1.74791 0.763425 0
1.74829 0.830286 0
1.74885 0.897765 0
1.74959 0.965832 0
1.91555 0.0363295 0
1.91388 0.107253 0
1.91312 0.175401 0
1.91283 0.241837 0
1.91276 0.307169 0
1.91277 0.371793 0
1.9128 0.435995 0
1.91281 0.5 0
1.9128 0.564005 0
1.91277 0.628207 0
1.91276 0.692831 0
1.91283 0.758163 0
1.91312 0.824599 0
1.91388 0.892747 0
1.91555 0.963671 0
2.07838 0.0591504 0
2.07417 0.125973 0
2.07554 0.190391 0
2.07663 0.253364 0
2.07743 0.315525 0
2.07798 0.377223 0
2.07829 0.438667 0
2.0784 0.5 0
2.07829 0.561333 0
2.07798 0.622777 0
2.07743 0.684475 0
2.07663 0.746636 0
2.07554 0.809609 0
2.07417 0.874027 0
2.07838 0.94085 0
2.24384 0.096456 0
2.23911 0.153168 0
2.24152 0.210396 0
2.24318 0.267878 0
2.24431 0.325632 0
2.24503 0.383617 0
2.24544 0.441767 0
2.24557 0.5 0
2.24544 0.558233 0
2.24503 0.616383 0
2.24431 0.674368 0
2.24318 0.732122 0
2.24152 0.789604 0
2.23911 0.846832 0
2.24384 0.903544 0
2.41462 0.118677 0
2.41292 0.170231 0
2.41356 0.223198 0
2.41406 0.277268 0
2.41444 0.332207 0
2.4147 0.387788 0
2.41485 0.44379 0
2.4149 0.5 0
2.41485 0.55621 0
2.4147 0.612212 0
2.41444 0.667793 0
2.41406 0.722732 0
2.41356 0.776802 0
2.41292 0.829769 0
2.41462 0.881323 0
2.58538 0.118677 0
2.58708 0.170231 0
2.58644 0.223198 0
2.58594 0.277268 0
2.58556 0.332207 0
2.5853 0.387788 0
2.58515 0.44379 0
2.5851 0.5 0
2.58515 0.55621 0
2.5853 0.612212 0
2.58556 0.667793 0
2.58594 0.722732 0
2.58644 0.776802 0
2.58708 0.829769 0
2.58538 0.881323 0
2.75616 0.096456 0
2.76089 0.153168 0
2.75848 0.210396 0
2.75682 0.267878 0
2.75569 0.325632 0
2.75497 0.383617 0
2.75456 0.441767 0
2.75443 0.5 0
2.75456 0.558233 0
2.75497 0.616383 0
2.75569 0.674368 0
2.75682 0.732122 0
2.75848 0.789604 0
2.76089 0.846832 0
2.75616 0.903544 0
2.92162 0.0591504 0
2.92583 0.125973 0
2.92446 0.190391 0
2.92337 0.253364 0
2.92257 0.315525 0
2.92202 0.377223 0
2.92171 0.438667 0
2.9216 0.5 0
2.92171 0.561333 0
2.92202 0.622777 0
2.92257 0.684475 0
2.92337 0.746636 0
2.92446 0.809609 0
2.92583 0.874027 0
2.92162 0.94085 0
3.08445 0.0363295 0
3.08612 0.107253 0
3.08688 0.175401 0
3.08717 0.241837 0
3.08724 0.307169 0
3.08723 0.371793 0
3.0872 0.435995 0
3.08719 0.5 0
3.0872 0.564005 0
3.08723 0.628207 0
3.08724 0.692831 0
3.08717 0.758163 0
3.08688 0.824599 0
3.08612 0.892747 0
3.08445 0.963671 0
3.25041 0.0341677 0
3.25115 0.102235 0
3.25171 0.169714 0
3.25209 0.236575 0
3.25234 0.302905 0
3.25249 0.368829 0
3.25256 0.434482 0
3.25259 0.5 0
3.25256 0.565518 0
3.25249 0.631171 0
3.25234 0.697095 0
3.25209 0.763425 0
3.25171 0.830286 0
3.25115 0.897765 0
3.25041 0.965832 0
3.41687 0.0336075 0
3.41725 0.10076 0
3.41758 0.167751 0
3.41785 0.234537 0
3.41805 0.301115 0
3.41819 0.367517 0
3.41827 0.433791 0
3.41829 0.5 0
3.41827 0.566209 0
3.41819 0.632483 0
3.41805 0.698885 0
3.41785 0.765463 0
3.41758 0.832249 0
3.41725 0.89924 0
3.41687 0.966392 0
3.58344 0.0334298 0
3.58366 0.10027 0
3.58385 0.16706 0
3.58402 0.233778 0
3.58415 0.300419 0
3.58425 0.36699 0
3.58431 0.433509 0
3.58433 0.5 0
3.58431 0.566491 0
3.58425 0.63301 0
3.58415 0.699581 0
3.58402 0.766222 0
3.58385 0.83294 0
3.58366 0.89973 0
3.58344 0.96657 0
3.75006 0.0333682 0
3.75019 0.100098 0
3.7503 0.16681 0
3.75041 0.233497 0
3.75049 0.300156 0
3.75055 0.366788 0
3.75058 0.433399 0
3.7506 0.5 0
3.75058 0.566601 0
3.75055 0.633212 0
3.75049 0.699844 0
3.75041 0.766503 0
3.7503 0.83319 0
3.75019 0.899902 0
3.75006 0.966632 0
3.9167 0.0333461 0
3.91678 0.100036 0
3.91685 0.166719 0
3.91691 0.233394 0
3.91696 0.300058 0
3.91699 0.366712 0
3.91702 0.433358 0
3.91702 0.5 0
3.91702 0.566642 0
3.91699 0.633288 0
3.91696 0.699942 0
3.91691 0.766606 0
3.91685 0.833281 0
3.91678 0.899964 0
3.9167 0.966654 0
4.08336 0.033338 0
4.0834 0.100013 0
4.08344 0.166686 0
4.08348 0.233356 0
4.08351 0.300021 0
4.08353 0.366683 0
4.08354 0.433342 0
4.08355 0.5 0
4.08354 0.566658 0
4.08353 0.633317 0
4.08351 0.699979 0
4.08348 0.766644 0
4.08344 0.833314 0
4.0834 0.899987 0
4.08336 0.966662 0
4.25001 0.0333351 0
4.25004 0.100005 0
4.25006 0.166674 0
4.25008 0.233342 0
4.2501 0.300008 0
4.25012 0.366673 0
4.25012 0.433337 0
4.25013 0.5 0
4.25012 0.566663 0
4.25012 0.633327 0
4.2501 0.699992 0
4.25008 0.766658 0
4.25006 0.833326 0
4.25004 0.899995 0
4.25001 0.966665 0
4.41667 0.033334 0
4.41669 0.100002 0
4.4167 0.166669 0
4.41672 0.233336 0
4.41673 0.300003 0
4.41673 0.366669 0
4.41674 0.433335 0
4.41674 0.5 0
4.41674 0.566665 0
4.41673 0.633331 0
4.41673 0.699997 0
4.41672 0.766664 0
4.4167 0.833331 0
4.41669 0.899998 0
4.41667 0.966666 0
4.58334 0.0333336 0
4.58335 0.100001 0
4.58335 0.166668 0
4.58336 0.233334 0
4.58337 0.300001 0
4.58337 0.366667 0
4.58337 0.433334 0
4.58338 0.5 0
4.58337 0.566666 0
4.58337 0.633333 0
4.58337 0.699999 0
4.58336 0.766666 0
4.58335 0.833332 0
4.58335 0.899999 0
4.58334 0.966666 0
4.75 0.0333334 0
4.75001 0.1 0
4.75001 0.166667 0
4.75001 0.233334 0
4.75002 0.3 0
4.75002 0.366667 0
4.75002 0.433333 0
4.75002 0.5 0
4.75002 0.566667 0
4.75002 0.633333 0
4.75002 0.7 0
4.75001 0.766666 0
4.75001 0.833333 0
4.75001 0.9 0
4.75 0.966667 0
4.91667 0.0333334 0
4.91667 0.1 0
4.91667 0.166667 0
4.91667 0.233333 0
4.91667 0.3 0
4.91667 0.366667 0
4.91667 0.433333 0
4.91667 0.5 0
4.91667 0.566667 0
4.91667 0.633333 0
4.91667 0.7 0
4.91667 0.766667 0
4.91667 0.833333 0
4.91667 0.9 0
4.91667 0.966667 0
POINT_DATA 450
SCALARS pressure float 1
LOOKUP_TABLE default
94477.1
94476.1
94474.9
94473.2
94471.4
94469.9
94468.8
94468.5
94468.8
94469.9
94471.4
94473.1
94474.9
94476
94477
94229.4
94225.1
94218.2
94208.4
94199.1
94190.2
94184.7
94182.4
94184.6
94190.1
94198.9
94208.2
94218
94224.9
94229.1
94561.1
94556.9
94548.7
94537.9
94527.3
94517.3
94511.1
94508.4
94511.1
94517.2
94527.1
94537.8
94548.5
94556.7
94560.9
94157.1
94154.1
94147.5
94138.5
94130.5
94121.7
94117.6
94114.4
94117.5
94121.5
94130.2
94138.2
94147
94153.6
94156.6
94620.5
94620.3
94617.1
94613.9
94610.6
94606.8
94605.6
94603.8
94605.5
94606.7
94610.4
94613.6
94616.8
94620
94620.2
94038.9
94041.3
94044
94046.4
94051.9
94052.4
94057.5
94054.9
94057.3
94052
94051.3
94045.7
94043.3
94040.4
94038
94685.9
94691.7
94699.7
94710.5
94722.7
94731.3
94739.9
94740.2
94739.7
94731.1
94722.4
94710.1
94699.2
94691.2
94685.3
93903.3
93904.9
93918.2
93923.5
93943.7
93946.6
93963.3
93956.7
93962.9
93945.8
93942.5
93922
93916.4
93903
93901.3
94826.6
94825
94835.8
94840.6
94857.4
94862
94875.6
94871.7
94875.4
94861.4
94856.8
94839.4
94834.9
94823.7
94825.4
93855.4
93798.7
93808.6
93749.8
93766.6
93724.8
93747.4
93717.8
93746.3
93723
93763.5
93746.2
93803.9
93793.6
93850
95242.3
95107.9
95082.3
94988.3
94972.3
94916.3
94921.1
94892.9
94920.7
94914.2
94971.1
94984.4
95080.6
95103
95239.7
94547.5
93791.7
93758.3
93351.2
93310.5
93120.8
93119.3
93050.1
93117
93117.3
93303.3
93343.4
93745.8
93777.6
94529.1
96089.9
95451.7
95046.1
94755.3
94616.4
94485.6
94449.3
94410.1
94448.8
94480
94615.4
94742.3
95046.1
95427.2
96091
89136.4
90213.5
89829.7
90519.8
90315.1
90746.9
90553.7
90827.6
90553.4
90751.7
90314.4
90532.1
89828.8
90240.3
89128.6
90211.1
91520.2
91411.3
92233.1
92072
92593.6
92364.9
92703.9
92361.5
92596.6
92061.3
92240.4
91392.3
91533.9
90175.5
87368.3
88846.5
88626.3
89612.4
89374.1
90032.5
89720.6
90165.3
89713.8
90029.1
89352.3
89602.5
88586.2
88821.7
87294.1
91759
92520.5
92292
92847.3
92628.4
93041.7
92787.2
93106
92781.6
93045
92610
92853.1
92255.9
92524.2
91695.8
93233.4
92715.8
92587.3
92409.5
92289
92293.9
92176.8
92268.9
92174.1
92310.8
92280.5
92447.8
92570
92788.2
93228.7
96863.3
95829.8
95648.3
95161.2
95018.9
94818
94749.8
94715.9
94756.5
94830.9
95041.1
95187.3
95692.3
95868.6
96963.6
93035
93104
93072
93091.4
93051.3
93065.9
93027.3
93054.7
93026.3
93067.5
93048.2
93093
93066
93102
93026.8
95164.7
95074.4
95022.2
94911.2
94857.6
94782.7
94759
94736.6
94761.5
94787.3
94864.8
94919.4
95033
95084.8
95178.2
93577.5
93570.4
93552.2
93531.6
93505
93487.7
93469
93469
93468.9
93488
93504.6
93531.7
93551.7
93570.5
93577.6
94686.1
94667.6
94641.7
94601.4
94568.6
94533.4
94515.8
94505.5
94516.4
94534.5
94570.2
94603.3
94643.9
94669.7
94688.3
93841.7
93831.7
93813.9
93789.4
93765.1
93742.8
93728.4
93723
93728.4
93743
93765.3
93789.7
93814.3
93832.4
93842.5
94452.4
94444.1
94428.5
94407.2
94387.1
94367.3
94356.2
94350.4
94356.3
94367.4
94387.3
94407.4
94428.6
94444.3
94452.5
93947.5
93944
93935.1
93924
93913
93902.1
93896.2
93892.8
93896.3
93902.3
93913.2
93924.3
93935.5
93944.4
93948.1
94310
94309.6
94305.9
94302.3
94298.7
94294.6
94293.2
94291.3
94293.2
94294.6
94298.6
94302.2
94305.7
94309.3
94309.6
93987.7
93990
93991.3
93994.4
93997.3
93999.4
94001.7
94001.6
94001.7
93999.5
93997.5
93994.7
93991.6
93990.3
93988.1
94245.2
94248.1
94251.3
94256.7
94262
94266.4
94270
94270.6
94270
94266.4
94261.9
94256.6
94251.2
94247.8
94244.9
94018.5
94020.7
94023.9
94028.4
94033
94036.9
94039.7
94040.5
94039.8
94037
94033.2
94028.8
94024.3
94021.2
94019
SCALARS density float 1
LOOKUP_TABLE default
1.21463
1.21462
1.21461
1.21459
1.21458
1.21456
1.21455
1.21455
1.21455
1.21456
1.21458
1.21459
1.21461
1.21462
1.21463
1.21234
1.2123
1.21223
1.21215
1.21206
1.21198
1.21193
1.21191
1.21193
1.21198
1.21206
1.21215
1.21223
1.2123
1.21234
1.21538
1.21534
1.21527
1.21517
1.21507
1.21498
1.21493
1.2149
1.21493
1.21498
1.21507
1.21517
1.21527
1.21534
1.21538
1.21167
1.21165
1.21159
1.21151
1.21143
1.21135
1.21132
1.21129
1.21132
1.21135
1.21143
1.2115
1.21159
1.21164
1.21167
1.21593
1.21593
1.2159
1.21587
1.21584
1.21581
1.21579
1.21578
1.21579
1.2158
1.21584
1.21587
1.2159
1.21593
1.21593
1.2106
1.21062
1.21065
1.21067
1.21073
1.21073
1.21078
1.21076
1.21078
1.21073
1.21072
1.21067
1.21065
1.21062
1.21059
1.21651
1.21657
1.21664
1.21674
1.21686
1.21693
1.21701
1.21702
1.21701
1.21693
1.21685
1.21674
1.21664
1.21656
1.21651
1.20941
1.20943
1.20955
1.2096
1.20979
1.20982
1.20998
1.20992
1.20998
1.20982
1.20978
1.20959
1.20954
1.20941
1.20939
1.21768
1.21767
1.21778
1.21784
1.218
1.21805
1.21817
1.21814
1.21817
1.21804
1.218
1.21783
1.21778
1.21766
1.21767
1.20933
1.20881
1.20885
1.20827
1.20841
1.20801
1.20822
1.20794
1.20821
1.208
1.20838
1.20824
1.20881
1.20876
1.20928
1.22051
1.2195
1.21945
1.21875
1.21869
1.21822
1.21829
1.21804
1.21829
1.21821
1.21868
1.21872
1.21944
1.21946
1.2205
1.21846
1.21054
1.20972
1.20553
1.20495
1.20301
1.20294
1.20225
1.20292
1.20298
1.20487
1.20545
1.20959
1.2104
1.21828
1.22558
1.22081
1.21782
1.21578
1.21477
1.21378
1.21352
1.21321
1.21352
1.21373
1.21478
1.21569
1.21784
1.22055
1.22558
1.16444
1.17507
1.17119
1.17779
1.17588
1.18
1.17819
1.18078
1.17819
1.18005
1.17588
1.17791
1.17117
1.17546
1.16501
1.17548
1.18819
1.18668
1.19425
1.1926
1.19744
1.19526
1.19842
1.19523
1.19748
1.19251
1.19432
1.18651
1.18854
1.17569
1.14716
1.16158
1.15948
1.16875
1.16653
1.17274
1.16986
1.17402
1.1698
1.17271
1.16632
1.16864
1.15913
1.16159
1.14698
1.18877
1.19639
1.19456
1.19967
1.19775
1.20153
1.19926
1.20214
1.19921
1.20156
1.19758
1.1997
1.19425
1.19668
1.18912
1.20174
1.19777
1.19689
1.19505
1.19394
1.19392
1.19291
1.1937
1.19289
1.19408
1.19386
1.19536
1.19676
1.19888
1.20302
1.23292
1.22536
1.2246
1.2204
1.21917
1.2174
1.21685
1.21654
1.21691
1.21752
1.21935
1.22056
1.22503
1.22621
1.23507
1.19903
1.20051
1.20096
1.20136
1.20101
1.20117
1.20086
1.20112
1.20085
1.20118
1.20095
1.2013
1.20098
1.20102
1.20005
1.21869
1.21857
1.21883
1.21811
1.21766
1.217
1.21682
1.21663
1.21685
1.21703
1.21767
1.21811
1.21904
1.21924
1.21987
1.20427
1.2048
1.20531
1.20544
1.20525
1.2051
1.20496
1.20497
1.20496
1.20509
1.20519
1.20538
1.20544
1.20538
1.20527
1.21449
1.21487
1.21529
1.21527
1.21505
1.21473
1.21459
1.21451
1.2146
1.21472
1.215
1.21523
1.21547
1.21549
1.21549
1.2068
1.20721
1.20767
1.20781
1.20769
1.20749
1.20737
1.20733
1.20737
1.20746
1.20762
1.20777
1.20785
1.20782
1.20775
1.21242
1.21282
1.21327
1.21345
1.21339
1.21321
1.21312
1.21307
1.21312
1.21318
1.21332
1.21342
1.21347
1.21342
1.21335
1.20787
1.20827
1.20876
1.20905
1.20909
1.20901
1.20895
1.20892
1.20894
1.20897
1.20902
1.20904
1.20899
1.20888
1.20877
1.21111
1.21152
1.21203
1.21239
1.21251
1.21249
1.21247
1.21246
1.21246
1.21244
1.21243
1.21238
1.21226
1.21211
1.21199
1.20845
1.20886
1.20941
1.20984
1.21004
1.21009
1.2101
1.2101
1.21009
1.21004
1.20997
1.20985
1.20966
1.20947
1.20932
1.21018
1.21057
1.21111
1.21155
1.21178
1.21185
1.21188
1.21188
1.21186
1.2118
1.21171
1.21156
1.21137
1.21116
1.21102
1.2096
1.20997
1.2105
1.21093
1.21116
1.21123
1.21125
1.21124
1.21123
1.21118
1.21109
1.21096
1.21077
1.21057
1.21044
SCALARS u-velocity float 1
LOOKUP_TABLE default
99.5939
99.5958
99.5968
99.5994
99.6011
99.603
99.604
99.6046
99.6043
99.6035
99.6019
99.6005
99.5981
99.5972
99.5954
98.7081
98.7138
98.7221
98.7343
98.7462
98.7571
98.7645
98.767
98.7647
98.7575
98.7467
98.735
98.7229
98.7147
98.709
99.663
99.6714
99.6849
99.7038
99.7206
99.7375
99.7467
99.752
99.7472
99.7386
99.7221
99.7057
99.6872
99.6739
99.6656
98.579
98.5815
98.5882
98.5977
98.6083
98.6187
98.6252
98.6283
98.6254
98.6191
98.6088
98.5984
98.5889
98.5822
98.5796
99.8215
99.8328
99.8489
99.8712
99.886
99.905
99.9104
99.9188
99.9114
99.9071
99.8891
99.8751
99.8536
99.8382
99.8273
98.43
98.4179
98.4053
98.3953
98.3896
98.3886
98.3864
98.3883
98.3868
98.3893
98.3905
98.3964
98.4061
98.4183
98.43
99.9894
100.031
100.067
100.119
100.136
100.173
100.172
100.191
100.174
100.177
100.143
100.128
100.078
100.044
100.004
98.2155
98.1605
98.1122
98.0924
98.0808
98.0894
98.0861
98.0981
98.0873
98.0923
98.0841
98.0972
98.1152
98.1615
98.2131
99.8281
100.11
100.253
100.498
100.588
100.743
100.758
100.82
100.763
100.752
100.603
100.515
100.277
100.143
99.8709
97.483
97.3674
97.4715
97.6655
97.7974
98.0047
98.0801
98.1691
98.0856
98.0176
97.8108
97.6888
97.4906
97.3812
97.4665
97.8344
99.6862
100.027
101.228
101.715
102.255
102.435
102.567
102.444
102.27
101.746
101.261
100.071
99.7458
97.9739
89.6115
94.6104
96.4267
98.2288
99.2442
100.389
100.803
101.114
100.819
100.427
99.2852
98.301
96.5038
94.7634
89.5324
89.9921
94.2023
101.736
104.033
106.541
106.998
108.043
107.793
108.059
107.029
106.596
104.126
101.865
94.2711
90.2721
123.797
120.291
120.881
119.452
119.771
118.302
118.707
117.843
118.707
118.277
119.778
119.38
120.829
120.344
124.968
134.827
130.576
127.567
124.979
123.937
122.175
121.991
121.216
122.008
122.194
123.984
124.979
127.637
131.037
135.997
137.009
133.267
130.027
127.583
126.379
124.923
124.548
123.993
124.579
124.976
126.467
127.676
130.268
133.9
138.155
117.908
120.329
118.205
118.465
117.428
117.529
116.798
117.039
116.819
117.53
117.473
118.415
118.341
120.864
120.157
89.3524
101.735
102.683
106.309
106.561
108.656
108.265
109.21
108.231
108.586
106.415
106.019
102.396
102.333
92.2046
79.302
90.7382
95.7025
99.1481
100.351
102.117
102.273
102.929
102.23
102.059
100.132
98.8767
95.4814
91.7974
81.7207
96.1308
98.7892
102.025
103.024
103.459
103.955
104.031
104.266
104.028
103.939
103.343
102.858
102.162
100.065
98.6572
91.16
93.9003
97.0313
98.5978
99.1679
99.7066
99.868
100.085
99.8595
99.6662
99.0063
98.4074
97.2191
95.2062
93.5703
95.965
98.0102
100.572
101.811
102.211
102.381
102.485
102.56
102.489
102.348
102.075
101.678
100.887
99.3622
98.287
93.4782
95.4369
97.8755
99.2778
99.7555
99.9341
100.031
100.102
100.03
99.8823
99.5993
99.1564
98.2449
96.8128
95.7474
95.6305
97.4074
99.6555
101.044
101.539
101.658
101.721
101.758
101.718
101.597
101.384
100.957
100.083
98.7875
97.8203
94.3918
96.0713
98.2358
99.6738
100.227
100.354
100.398
100.425
100.388
100.279
100.066
99.6107
98.7094
97.4656
96.5419
95.4792
97.0449
99.1036
100.543
101.134
101.262
101.284
101.295
101.267
101.174
100.972
100.507
99.6137
98.4338
97.5686
94.9473
96.4309
98.4196
99.8718
100.507
100.648
100.655
100.654
100.629
100.548
100.344
99.8611
98.9645
97.8248
97.0013
95.455
96.8572
98.7704
100.22
100.89
101.047
101.045
101.032
101.01
100.936
100.73
100.233
99.3421
98.2445
97.463
95.3253
96.6628
98.5175
99.9696
100.676
100.855
100.848
100.826
100.804
100.734
100.52
100.006
99.1147
98.0482
97.2995
95.4473
96.7272
98.5282
99.9803
100.723
100.928
100.925
100.896
100.872
100.799
100.571
100.039
99.1465
98.1065
97.3861
SCALARS v-velocity float 1
LOOKUP_TABLE default
-0.00329712
-0.00810975
-0.0125406
-0.0139554
-0.0135835
-0.0105063
-0.00592302
-0.000257665
0.0054189
0.0100327
0.0131604
0.0136022
0.0122714
0.00794379
0.00323804
0.00198808
0.00563324
0.00731631
0.00912606
0.00790058
0.00678505
0.00360286
0.000429732
-0.00276569
-0.00599577
-0.00719964
-0.00853726
-0.00687197
-0.00535466
-0.00189285
0.00978665
0.0266843
0.0386204
0.0457714
0.0426825
0.0344372
0.0183153
-4.21471e-05
-0.0183968
-0.0345243
-0.042773
-0.0458619
-0.0387081
-0.0267423
-0.00981261
0.0215298
0.0541961
0.0811364
0.0919567
0.0874627
0.0687876
0.0379469
0.00142331
-0.0351751
-0.0661655
-0.0851213
-0.0899764
-0.0796161
-0.0532415
-0.0211911
0.0221726
0.0582703
0.0887079
0.103215
0.099486
0.0789093
0.0431499
0.000232542
-0.0426673
-0.0785328
-0.0992007
-0.103076
-0.088716
-0.0583097
-0.022228
0.0424781
0.0983441
0.150596
0.163706
0.157952
0.121375
0.0683629
0.00368168
-0.061221
-0.114542
-0.151807
-0.158407
-0.146377
-0.0956334
-0.0414573
0.0186084
0.0516221
0.089819
0.10633
0.109086
0.0860782
0.0494368
0.00113829
-0.0469883
-0.0842228
-0.107572
-0.105565
-0.0898886
-0.0519363
-0.0190517
0.0917661
0.165085
0.247153
0.251307
0.237514
0.17748
0.100035
0.00869018
-0.083395
-0.161094
-0.22271
-0.238104
-0.235918
-0.157241
-0.0882973
0.0232417
0.11365
0.199201
0.216875
0.224352
0.170587
0.101286
0.00524317
-0.0895205
-0.161828
-0.216398
-0.212228
-0.19835
-0.115445
-0.027175
0.375797
0.503917
0.689172
0.724537
0.598264
0.463049
0.23705
0.0187349
-0.202555
-0.426982
-0.566111
-0.694381
-0.662834
-0.481208
-0.359419
1.10532
1.69423
1.98472
1.8701
1.63625
1.16745
0.627691
0.0216551
-0.576591
-1.12833
-1.59448
-1.8426
-1.96084
-1.69092
-1.13615
-0.327933
3.32219
2.45552
3.00913
1.96851
1.65182
0.741544
0.0358009
-0.681076
-1.58329
-1.91484
-2.95074
-2.42615
-3.30094
0.365758
23.0844
19.9137
15.9419
12.8634
9.00845
6.09491
2.93417
0.0668608
-2.77288
-5.95832
-8.8264
-12.7259
-15.7164
-19.7406
-22.8553
25.1133
16.0426
13.1359
8.6583
6.59367
3.82029
2.03506
0.0754764
-1.89355
-3.66633
-6.45262
-8.48843
-12.968
-15.844
-25.2824
11.4025
7.08869
6.73753
4.14124
3.71004
1.9899
1.20818
0.0687281
-1.12354
-1.85832
-3.65301
-4.02128
-6.73561
-7.05236
-11.6342
-8.2383
-8.57955
-4.71335
-4.83021
-2.40702
-2.11964
-0.692511
0.126193
0.871924
2.37403
2.59076
5.09602
4.91612
8.86792
8.46903
-20.8738
-18.1536
-12.1677
-10.1155
-6.25872
-4.43037
-1.85837
0.155892
2.08133
4.76545
6.51483
10.5302
12.5427
18.8189
21.5492
-23.3439
-18.4509
-14.4922
-10.9372
-7.90458
-5.02024
-2.44237
0.188183
2.63872
5.41994
8.10374
11.4245
14.732
19.2171
23.9266
-2.49159
-0.542425
-2.29652
-1.39993
-1.82024
-0.966378
-0.649717
0.0440339
0.672955
1.04023
1.82283
1.44804
2.267
0.476912
2.35251
-1.93231
-2.27455
-2.7847
-2.30292
-2.13291
-1.35923
-0.746761
0.0561506
0.812291
1.46078
2.19263
2.38895
2.82136
2.23327
1.90982
-0.217421
-0.318653
-0.44542
-0.287872
-0.416623
-0.229795
-0.165024
0.0101789
0.169395
0.246188
0.427048
0.309073
0.44543
0.272933
0.191616
-0.188434
-0.393253
-0.478057
-0.39144
-0.419233
-0.27989
-0.165708
0.0113949
0.179475
0.300498
0.438859
0.412529
0.473549
0.348665
0.164553
-0.0399182
-0.104926
-0.079741
-0.0221685
-0.0489793
-0.0306074
-0.0272958
0.0017451
0.0281795
0.0367618
0.0607716
0.0354783
0.0738429
0.0733423
0.0217978
-0.0346974
-0.0797212
-0.0495329
0.00355272
-0.00399392
-0.00265136
-0.00893197
-7.50154e-05
0.00805829
0.00648527
0.0130611
0.00315836
0.0360934
0.0462486
0.0165222
-0.00664788
-0.00685956
0.045055
0.0952601
0.0912582
0.0670782
0.0305114
-0.000757921
-0.0312942
-0.0628069
-0.081295
-0.088006
-0.0551448
-0.018599
-0.00732144
-0.00338653
0.00375528
0.0555377
0.104358
0.106612
0.0794202
0.0374371
-0.00259998
-0.0412671
-0.0781337
-0.100651
-0.102843
-0.0704942
-0.0304266
-0.0103589
0.0029381
0.0187773
0.0701206
0.114162
0.118406
0.0890626
0.0439886
-0.0015663
-0.0453238
-0.0851875
-0.110432
-0.110995
-0.081715
-0.0401972
-0.0139868
-0.00209519
0.00455371
0.0452327
0.0833587
0.0916445
0.0691051
0.0332521
-0.00304149
-0.0373144
-0.0680525
-0.0873466
-0.0845289
-0.0598768
-0.0265757
-0.00871883
-0.00502657
-0.00430441
0.0262639
0.0576938
0.0675933
0.0513972
0.0246458
-0.00213634
-0.0267544
-0.0485036
-0.0620566
-0.0577457
-0.0384781
-0.0142107
-0.0040292
-0.0140943
-0.028061
-0.011311
0.0147298
0.0274514
0.0211617
0.00821987
-0.00290833
-0.0118121
-0.0199028
-0.0241467
-0.0174616
-0.00303127
0.00862029
0.00487311
SCALARS Mach float 1
LOOKUP_TABLE default
30.058
30.0592
30.0599
30.0615
30.0626
30.0638
30.0644
30.0648
30.0646
30.0641
30.0631
30.0622
30.0607
30.0601
30.0589
29.5366
29.5402
29.5455
29.5532
29.5608
29.5677
29.5724
29.574
29.5725
29.5679
29.5611
29.5536
29.546
29.5407
29.5371
30.0957
30.1009
30.1095
30.1214
30.1321
30.1428
30.1486
30.1519
30.1489
30.1434
30.133
30.1226
30.1109
30.1025
30.0973
29.4626
29.4643
29.4686
29.4747
29.4814
29.488
29.4921
29.4941
29.4922
29.4882
29.4817
29.4751
29.469
29.4647
29.463
30.1888
30.1956
30.2055
30.2192
30.2283
30.24
30.2433
30.2485
30.2439
30.2412
30.2302
30.2216
30.2084
30.1989
30.1923
29.3791
29.3718
29.3642
29.3581
29.3545
29.3539
29.3524
29.3536
29.3526
29.3543
29.3551
29.3588
29.3647
29.3721
29.3791
30.2872
30.3122
30.3336
30.3648
30.3748
30.3964
30.3954
30.4073
30.3968
30.3991
30.3788
30.37
30.3402
30.3202
30.2962
29.2579
29.2252
29.1959
29.1839
29.1762
29.1811
29.1784
29.1858
29.1791
29.1829
29.1782
29.1869
29.1978
29.2259
29.2565
30.1816
30.3527
30.439
30.588
30.6422
30.7362
30.7452
30.7831
30.7481
30.7417
30.6511
30.5987
30.4538
30.3725
30.2076
28.8298
28.7644
28.8256
28.9427
29.0195
29.1439
29.1873
29.2414
29.1906
29.1516
29.0275
28.9566
28.8369
28.7727
28.8203
28.9622
30.0825
30.295
31.0315
31.3306
31.6632
31.7719
31.8542
31.7771
31.6726
31.3491
31.0519
30.3217
30.1187
29.0453
24.3641
27.2117
28.2455
29.3326
29.9252
30.6223
30.8682
31.06
30.8775
30.6451
29.9494
29.3748
28.2907
27.2998
24.3218
26.0527
28.0206
32.081
33.2656
34.6201
34.7918
35.3895
35.2024
35.3974
34.8076
34.6461
33.3144
32.1388
28.0397
26.1731
48.7415
44.9216
45.1186
43.7283
43.8791
42.6974
42.9707
42.3177
42.9691
42.675
43.8786
43.6663
45.0665
44.9419
49.6723
55.8553
52.0745
49.6924
47.5544
46.7642
45.3788
45.2496
44.6492
45.2617
45.3911
46.7989
47.5508
49.7484
52.444
56.8542
57.6947
54.498
51.7518
49.7527
48.785
47.6153
47.3415
46.8865
47.3665
47.6597
48.8574
49.8336
51.9528
55.0381
58.6927
43.6165
45.0058
42.9349
42.9455
42.0262
42.012
41.4597
41.5995
41.478
42.0218
42.0697
42.935
43.0635
45.4772
45.3544
25.8787
32.4745
32.6779
34.7121
34.7079
35.9644
35.6556
36.2565
35.6367
35.9298
34.6237
34.5557
32.5215
32.9349
27.549
18.9811
24.8836
27.7135
29.7586
30.4966
31.5821
31.6814
32.0894
31.6546
31.5464
30.3624
29.5943
27.5838
25.4714
20.1605
28.0497
29.6336
31.6249
32.2412
32.5138
32.8178
32.8644
33.0097
32.8627
32.8085
32.4415
32.1379
31.7115
30.4096
29.5564
25.1336
26.679
28.499
29.4346
29.7792
30.1069
30.206
30.3386
30.2008
30.0822
29.6813
29.3199
28.6101
27.432
26.4913
27.9216
29.1323
30.6848
31.4503
31.7
31.8062
31.8721
31.9187
31.8749
31.7856
31.6149
31.3675
30.8787
29.9486
29.3012
26.4491
27.5762
29.0124
29.8557
30.1462
30.2559
30.3155
30.3592
30.3151
30.2242
30.051
29.782
29.2336
28.3839
27.7599
27.7172
28.7632
30.1147
30.9656
31.2722
31.3464
31.3864
31.4095
31.3847
31.3087
31.176
30.9118
30.3761
29.5913
29.0124
26.979
27.9533
29.235
30.1029
30.4406
30.5188
30.5457
30.5624
30.5396
30.4724
30.3415
30.0643
29.52
28.7777
28.2328
27.6262
28.5449
29.7764
30.653
31.017
31.0959
31.1098
31.1168
31.0991
31.0418
30.9169
30.6309
30.0864
29.3752
28.8592
27.3033
28.1679
29.3485
30.2261
30.6137
30.7002
30.7046
30.7042
30.6887
30.6387
30.514
30.2195
29.6773
28.9953
28.5077
27.6129
28.4346
29.5756
30.4548
30.8654
30.9619
30.9604
30.9528
30.9389
30.8936
30.7668
30.4631
29.922
29.2623
28.7972
27.5199
28.3018
29.4043
30.2822
30.7139
30.823
30.8186
30.8051
30.7916
30.7485
30.6174
30.3045
29.765
29.126
28.6816
27.6171
28.3668
29.4388
30.3177
30.7716
30.8976
30.8953
30.8777
30.8629
30.8177
30.6781
30.3535
29.8127
29.1887
28.7604
