# vtk DataFile Version 3.0
Structured Grid Example
ASCII
DATASET STRUCTURED_GRID
DIMENSIONS 15 30 1
POINTS 450 FLOAT
0.0833327 0.0333334 0
0.0833313 0.1 0
0.0833301 0.166667 0
0.083329 0.233333 0
0.0833281 0.3 0
0.0833274 0.366667 0
0.083327 0.433333 0
0.0833268 0.5 0
0.083327 0.566667 0
0.0833274 0.633333 0
0.0833281 0.7 0
0.083329 0.766667 0
0.0833301 0.833333 0
0.0833313 0.9 0
0.0833327 0.966667 0
0.249998 0.0333334 0
0.249993 0.1 0
0.249989 0.166667 0
0.249986 0.233334 0
0.249983 0.3 0
0.24998 0.366667 0
0.249979 0.433333 0
0.249979 0.5 0
0.249979 0.566667 0
0.24998 0.633333 0
0.249983 0.7 0
0.249986 0.766666 0
0.249989 0.833333 0
0.249993 0.9 0
0.249998 0.966667 0
0.416662 0.0333336 0
0.416654 0.100001 0
0.416646 0.166668 0
0.416639 0.233334 0
0.416633 0.300001 0
0.416628 0.366667 0
0.416626 0.433334 0
0.416625 0.5 0
0.416626 0.566666 0
0.416628 0.633333 0
0.416633 0.699999 0
0.416639 0.766666 0
0.416646 0.833332 0
0.416654 0.899999 0
0.416662 0.966666 0
0.583326 0.033334 0
0.58331 0.100002 0
0.583296 0.166669 0
0.583284 0.233336 0
0.583273 0.300003 0
0.583266 0.366669 0
0.583261 0.433335 0
0.583259 0.5 0
0.583261 0.566665 0
0.583266 0.633331 0
0.583273 0.699997 0
0.583284 0.766664 0
0.583296 0.833331 0
0.58331 0.899998 0
0.583326 0.966666 0
0.749987 0.0333351 0
0.749961 0.100005 0
0.749937 0.166674 0
0.749915 0.233342 0
0.749898 0.300008 0
0.749884 0.366673 0
0.749876 0.433337 0
0.749874 0.5 0
0.749876 0.566663 0
0.749884 0.633327 0
0.749898 0.699992 0
0.749915 0.766658 0
0.749937 0.833326 0
0.749961 0.899995 0
0.749987 0.966665 0
0.916644 0.033338 0
0.916601 0.100013 0
0.91656 0.166686 0
0.916524 0.233356 0
0.916494 0.300021 0
0.916472 0.366683 0
0.916458 0.433342 0
0.916454 0.5 0
0.916458 0.566658 0
0.916472 0.633317 0
0.916494 0.699979 0
0.916524 0.766644 0
0.91656 0.833314 0
0.916601 0.899987 0
0.916644 0.966662 0
1.0833 0.0333461 0
1.08322 0.100036 0
1.08315 0.166719 0
1.08309 0.233394 0
1.08304 0.300058 0
1.08301 0.366712 0
1.08298 0.433358 0
1.08298 0.5 0
1.08298 0.566642 0
1.08301 0.633288 0
1.08304 0.699942 0
1.08309 0.766606 0
1.08315 0.833281 0
1.08322 0.899964 0
1.0833 0.966654 0
1.24994 0.0333682 0
1.24981 0.100098 0
1.2497 0.16681 0
1.24959 0.233497 0
1.24951 0.300156 0
1.24945 0.366788 0
1.24942 0.433399 0
1.2494 0.5 0
1.24942 0.566601 0
1.24945 0.633212 0
1.24951 0.699844 0
1.24959 0.766503 0
1.2497 0.83319 0
1.24981 0.899902 0
1.24994 0.966632 0
1.41656 0.0334298 0
1.41634 0.10027 0
1.41615 0.16706 0
1.41598 0.233778 0
1.41585 0.300419 0
1.41575 0.36699 0
1.41569 0.433509 0
1.41567 0.5 0
1.41569 0.566491 0
1.41575 0.63301 0
1.41585 0.699581 0
1.41598 0.766222 0
1.41615 0.83294 0
1.41634 0.89973 0
1.41656 0.96657 0
1.58313 0.0336075 0
1.58275 0.10076 0
1.58242 0.167751 0
1.58215 0.234537 0
1.58195 0.301115 0
1.58181 0.367517 0
1.58173 0.433791 0
1.58171 0.5 0
1.58173 0.566209 0
1.58181 0.632483 0
1.58195 0.698885 0
1.58215 0.765463 0
1.58242 0.832249 0
1.58275 0.89924 0
1.58313 0.966392 0
1.74959 0.0341677 0
1.74885 0.102235 0
1.74829 0.169714 0
1.74791 0.236575 0
1.74766 0.302905 0
1.74751 0.368829 0
1.74744 0.434482 0
1.74741 0.5 0
1.74744 0.565518 0
1.74751 0.631171 0
1.74766 0.697095 0
1.74791 0.763425 0
1.74829 0.830286 0
1.74885 0.897765 0
1.74959 0.965832 0
1.91555 0.0363295 0
1.91388 0.107253 0
1.91312 0.175401 0
1.91283 0.241837 0
1.91276 0.307169 0
1.91277 0.371793 0
1.9128 0.435995 0
1.91281 0.5 0
1.9128 0.564005 0
1.91277 0.628207 0
1.91276 0.692831 0
1.91283 0.758163 0
1.91312 0.824599 0
1.91388 0.892747 0
1.91555 0.963671 0
2.07838 0.0591504 0
2.07417 0.125973 0
2.07554 0.190391 0
2.07663 0.253364 0
2.07743 0.315525 0
2.07798 0.377223 0
2.07829 0.438667 0
2.0784 0.5 0
2.07829 0.561333 0
2.07798 0.622777 0
2.07743 0.684475 0
2.07663 0.746636 0
2.07554 0.809609 0
2.07417 0.874027 0
2.07838 0.94085 0
2.24384 0.096456 0
2.23911 0.153168 0
2.24152 0.210396 0
2.24318 0.267878 0
2.24431 0.325632 0
2.24503 0.383617 0
2.24544 0.441767 0
2.24557 0.5 0
2.24544 0.558233 0
2.24503 0.616383 0
2.24431 0.674368 0
2.24318 0.732122 0
2.24152 0.789604 0
2.23911 0.846832 0
2.24384 0.903544 0
2.41462 0.118677 0
2.41292 0.170231 0
2.41356 0.223198 0
2.41406 0.277268 0
2.41444 0.332207 0
2.4147 0.387788 0
2.41485 0.44379 0
2.4149 0.5 0
2.41485 0.55621 0
2.4147 0.612212 0
2.41444 0.667793 0
2.41406 0.722732 0
2.41356 0.776802 0
2.41292 0.829769 0
2.41462 0.881323 0
2.58538 0.118677 0
2.58708 0.170231 0
2.58644 0.223198 0
2.58594 0.277268 0
2.58556 0.332207 0
2.5853 0.387788 0
2.58515 0.44379 0
2.5851 0.5 0
2.58515 0.55621 0
2.5853 0.612212 0
2.58556 0.667793 0
2.58594 0.722732 0
2.58644 0.776802 0
2.58708 0.829769 0
2.58538 0.881323 0
2.75616 0.096456 0
2.76089 0.153168 0
2.75848 0.210396 0
2.75682 0.267878 0
2.75569 0.325632 0
2.75497 0.383617 0
2.75456 0.441767 0
2.75443 0.5 0
2.75456 0.558233 0
2.75497 0.616383 0
2.75569 0.674368 0
2.75682 0.732122 0
2.75848 0.789604 0
2.76089 0.846832 0
2.75616 0.903544 0
2.92162 0.0591504 0
2.92583 0.125973 0
2.92446 0.190391 0
2.92337 0.253364 0
2.92257 0.315525 0
2.92202 0.377223 0
2.92171 0.438667 0
2.9216 0.5 0
2.92171 0.561333 0
2.92202 0.622777 0
2.92257 0.684475 0
2.92337 0.746636 0
2.92446 0.809609 0
2.92583 0.874027 0
2.92162 0.94085 0
3.08445 0.0363295 0
3.08612 0.107253 0
3.08688 0.175401 0
3.08717 0.241837 0
3.08724 0.307169 0
3.08723 0.371793 0
3.0872 0.435995 0
3.08719 0.5 0
3.0872 0.564005 0
3.08723 0.628207 0
3.08724 0.692831 0
3.08717 0.758163 0
3.08688 0.824599 0
3.08612 0.892747 0
3.08445 0.963671 0
3.25041 0.0341677 0
3.25115 0.102235 0
3.25171 0.169714 0
3.25209 0.236575 0
3.25234 0.302905 0
3.25249 0.368829 0
3.25256 0.434482 0
3.25259 0.5 0
3.25256 0.565518 0
3.25249 0.631171 0
3.25234 0.697095 0
3.25209 0.763425 0
3.25171 0.830286 0
3.25115 0.897765 0
3.25041 0.965832 0
3.41687 0.0336075 0
3.41725 0.10076 0
3.41758 0.167751 0
3.41785 0.234537 0
3.41805 0.301115 0
3.41819 0.367517 0
3.41827 0.433791 0
3.41829 0.5 0
3.41827 0.566209 0
3.41819 0.632483 0
3.41805 0.698885 0
3.41785 0.765463 0
3.41758 0.832249 0
3.41725 0.89924 0
3.41687 0.966392 0
3.58344 0.0334298 0
3.58366 0.10027 0
3.58385 0.16706 0
3.58402 0.233778 0
3.58415 0.300419 0
3.58425 0.36699 0
3.58431 0.433509 0
3.58433 0.5 0
3.58431 0.566491 0
3.58425 0.63301 0
3.58415 0.699581 0
3.58402 0.766222 0
3.58385 0.83294 0
3.58366 0.89973 0
3.58344 0.96657 0
3.75006 0.0333682 0
3.75019 0.100098 0
3.7503 0.16681 0
3.75041 0.233497 0
3.75049 0.300156 0
3.75055 0.366788 0
3.75058 0.433399 0
3.7506 0.5 0
3.75058 0.566601 0
3.75055 0.633212 0
3.75049 0.699844 0
3.75041 0.766503 0
3.7503 0.83319 0
3.75019 0.899902 0
3.75006 0.966632 0
3.9167 0.0333461 0
3.91678 0.100036 0
3.91685 0.166719 0
3.91691 0.233394 0
3.91696 0.300058 0
3.91699 0.366712 0
3.91702 0.433358 0
3.91702 0.5 0
3.91702 0.566642 0
3.91699 0.633288 0
3.91696 0.699942 0
3.91691 0.766606 0
3.91685 0.833281 0
3.91678 0.899964 0
3.9167 0.966654 0
4.08336 0.033338 0
4.0834 0.100013 0
4.08344 0.166686 0
4.08348 0.233356 0
4.08351 0.300021 0
4.08353 0.366683 0
4.08354 0.433342 0
4.08355 0.5 0
4.08354 0.566658 0
4.08353 0.633317 0
4.08351 0.699979 0
4.08348 0.766644 0
4.08344 0.833314 0
4.0834 0.899987 0
4.08336 0.966662 0
4.25001 0.0333351 0
4.25004 0.100005 0
4.25006 0.166674 0
4.25008 0.233342 0
4.2501 0.300008 0
4.25012 0.366673 0
4.25012 0.433337 0
4.25013 0.5 0
4.25012 0.566663 0
4.25012 0.633327 0
4.2501 0.699992 0
4.25008 0.766658 0
4.25006 0.833326 0
4.25004 0.899995 0
4.25001 0.966665 0
4.41667 0.033334 0
4.41669 0.100002 0
4.4167 0.166669 0
4.41672 0.233336 0
4.41673 0.300003 0
4.41673 0.366669 0
4.41674 0.433335 0
4.41674 0.5 0
4.41674 0.566665 0
4.41673 0.633331 0
4.41673 0.699997 0
4.41672 0.766664 0
4.4167 0.833331 0
4.41669 0.899998 0
4.41667 0.966666 0
4.58334 0.0333336 0
4.58335 0.100001 0
4.58335 0.166668 0
4.58336 0.233334 0
4.58337 0.300001 0
4.58337 0.366667 0
4.58337 0.433334 0
4.58338 0.5 0
4.58337 0.566666 0
4.58337 0.633333 0
4.58337 0.699999 0
4.58336 0.766666 0
4.58335 0.833332 0
4.58335 0.899999 0
4.58334 0.966666 0
4.75 0.0333334 0
4.75001 0.1 0
4.75001 0.166667 0
4.75001 0.233334 0
4.75002 0.3 0
4.75002 0.366667 0
4.75002 0.433333 0
4.75002 0.5 0
4.75002 0.566667 0
4.75002 0.633333 0
4.75002 0.7 0
4.75001 0.766666 0
4.75001 0.833333 0
4.75001 0.9 0
4.75 0.966667 0
4.91667 0.0333334 0
4.91667 0.1 0
4.91667 0.166667 0
4.91667 0.233333 0
4.91667 0.3 0
4.91667 0.366667 0
4.91667 0.433333 0
4.91667 0.5 0
4.91667 0.566667 0
4.91667 0.633333 0
4.91667 0.7 0
4.91667 0.766667 0
4.91667 0.833333 0
4.91667 0.9 0
4.91667 0.966667 0
POINT_DATA 450
SCALARS pressure float 1
LOOKUP_TABLE default
94680.9
94641.1
94584.3
94502.5
94425.9
94356.6
94311.9
94295.9
94311.4
94355.7
94424.5
94500.8
94582.3
94638.9
94678.6
94861.2
94789.8
94655.5
94476.6
94306.1
94144.2
94049.7
94005
94049.4
94143.5
94305.1
94475.4
94654.1
94788.3
94859.7
94935.9
94937.4
94893.6
94848
94800.3
94740.8
94719
94692.1
94719.1
94741.1
94800.9
94848.7
94894.6
94938.5
94937.2
94280.5
94352.3
94417.7
94521.7
94615.3
94677.9
94736.8
94735.5
94737.2
94678.6
94616.5
94523.3
94419.7
94354.5
94282.9
94429
94559
94722.2
94964.4
95191
95378.7
95517.2
95546.7
95518.1
95380.5
95193.6
94967.6
94725.9
94562.9
94433.3
93540.3
93706.2
93949.4
94298.8
94638.4
94935.9
95145.8
95205
95146.9
94938
94641.2
94302.2
93953.1
93710
93544.2
94096.2
94253.5
94508.4
94868.8
95223.8
95548
95767.2
95841.2
95768.4
95550.2
95226.9
94872.2
94512.2
94257.2
94100
93418.8
93523.5
93725.6
93991.7
94272.1
94521.7
94697.5
94754.1
94698.2
94522.9
94273.7
93993.4
93727.2
93525
93420.3
94618.6
94655.4
94758.8
94886.5
95032.6
95166.1
95260
95293.8
95260.5
95166.7
95033.7
94887.3
94759.9
94656.2
94619.5
93913.7
93846.3
93861.5
93809.1
93842
93826.4
93863.6
93846.8
93862.7
93824.9
93839.5
93806.3
93857.8
93842.3
93909.5
95417.1
95260.4
95206.1
95075.3
95032.8
94959.4
94954.3
94925.2
94953.9
94957.2
95031.8
95071.6
95204.8
95256
95415.2
94691
93954.1
93906.7
93499.2
93451.2
93261.4
93259.8
93190.9
93257.5
93257.9
93444.2
93491.5
93894.7
93940.5
94673.6
96144.6
95543.4
95173.2
94928.6
94827.4
94730.4
94714.1
94682.1
94713.8
94725
94827.1
94915.9
95174.1
95519.4
96146.6
89377.3
90437
90087.4
90792.8
90627.2
91076.6
90909.3
91181.4
90909.2
91081.5
90627
90805.3
90087.2
90463.8
89370.3
90433.2
91702.4
91612.9
92425.2
92292.8
92814.8
92610
92940.3
92606.9
92818.3
92283.2
92433.3
91595.6
91717.1
90399.7
87494.9
88936.8
88744.8
89722.5
89520.5
90177.9
89895.2
90327.7
89888.8
90174.9
89499.8
89713.4
88706.4
88913.2
87423.1
91666.1
92417.5
92236.5
92802.5
92634.1
93056.7
92837.7
93145.9
92832.2
93059.9
92616.2
92808
92201.3
92420.6
91604.2
92959.9
92478.6
92402.4
92273
92207.8
92245.2
92161.9
92254
92159.1
92261.5
92199.2
92309.8
92385.1
92548.7
92955.2
96522.5
95534.8
95395.6
94962.6
94866.3
94701.2
94658
94629.2
94664.3
94713.4
94887.6
94987.5
95438.2
95572.1
96620.5
92808.6
92881
92859.4
92890.1
92865.2
92890.2
92863.1
92890.4
92861.9
92891.2
92861.3
92890.3
92852.1
92877.6
92799.3
94884.8
94806
94763.3
94677.8
94655
94614
94618.8
94603.7
94620.9
94617.7
94660.9
94684.3
94772.1
94814.6
94896.9
93103.6
93142.2
93186.6
93273.1
93362.1
93459.8
93526.1
93553.9
93525.8
93459.6
93361
93272.1
93184.6
93140.6
93102
93952.5
94028.5
94147.8
94327.7
94519.4
94698.9
94828.2
94871.2
94828.7
94699.8
94520.5
94328.8
94148.7
94028.7
93952.1
92965.3
93083.2
93277.4
93551.5
93821.6
94072.7
94234.3
94297.5
94234.2
94072.5
93821.2
93551.1
93276.3
93081.4
92962.5
93638
93755.6
93966.1
94243.1
94507.7
94746.1
94889.3
94949.8
94888.9
94745.4
94506.6
94241.8
93964.1
93752.5
93633.6
93414.5
93495.4
93658.6
93857.8
94041.3
94204.4
94291.3
94335.6
94290.6
94203.1
94039.5
93855.7
93656.1
93492.2
93410.6
94115.4
94140.4
94218.4
94300.3
94373.7
94441.6
94467.8
94491.1
94466.9
94439.9
94371.2
94297.3
94215
94136.8
94111.6
94058.5
94037.4
94035.5
94017.8
94002.5
93996.8
93981.6
93988.3
93980.8
93995.2
94000.2
94015
94032.5
94034.7
94056.2
94419.1
94378.8
94335.3
94270
94213
94172
94139.8
94137.2
94139.1
94170.6
94210.9
94267.4
94332.5
94376.5
94417.3
94132.8
94105.9
94067.4
94013.2
93962.9
93922.5
93893.8
93887.9
93893.6
93922
93962
94012.1
94066.4
94105.6
94133.2
SCALARS density float 1
LOOKUP_TABLE default
1.21593
1.21556
1.21502
1.21424
1.21352
1.21285
1.21243
1.21227
1.21242
1.21285
1.2135
1.21423
1.215
1.21554
1.21591
1.21667
1.21602
1.21478
1.21314
1.21157
1.21007
1.2092
1.20878
1.20919
1.21006
1.21156
1.21313
1.21477
1.216
1.21666
1.2169
1.21692
1.21652
1.21611
1.21568
1.21513
1.21493
1.21468
1.21493
1.21514
1.21568
1.21612
1.21653
1.21693
1.21692
1.21121
1.21187
1.21247
1.21343
1.21429
1.21486
1.2154
1.21538
1.2154
1.21487
1.2143
1.21344
1.21249
1.21189
1.21123
1.21326
1.21446
1.21596
1.21818
1.22025
1.22197
1.22323
1.2235
1.22324
1.22198
1.22027
1.21821
1.21599
1.21449
1.2133
1.20573
1.20726
1.2095
1.21272
1.21584
1.21857
1.22049
1.22103
1.2205
1.21859
1.21586
1.21275
1.20954
1.20729
1.20576
1.21133
1.21278
1.21512
1.21843
1.22168
1.22465
1.22665
1.22732
1.22666
1.22467
1.22171
1.21846
1.21516
1.21281
1.21137
1.20559
1.20656
1.20843
1.21089
1.21347
1.21577
1.21738
1.2179
1.21739
1.21578
1.21348
1.2109
1.20845
1.20658
1.20561
1.21664
1.21698
1.21795
1.21914
1.22048
1.22171
1.22257
1.22288
1.22257
1.22172
1.2205
1.21915
1.21796
1.21699
1.21665
1.21061
1.21
1.21008
1.20957
1.20985
1.20969
1.21003
1.20987
1.21002
1.20968
1.20983
1.20954
1.21005
1.20996
1.21058
1.22214
1.22093
1.22062
1.21958
1.21928
1.21866
1.21864
1.21839
1.21864
1.21865
1.21928
1.21955
1.22061
1.22089
1.22213
1.21836
1.21075
1.20991
1.2058
1.20519
1.20329
1.20322
1.20254
1.2032
1.20325
1.20512
1.20572
1.2098
1.21063
1.2182
1.22372
1.21938
1.21678
1.2152
1.21456
1.21389
1.21383
1.21359
1.21383
1.21385
1.21457
1.21511
1.21681
1.21914
1.22373
1.16363
1.17409
1.17061
1.17735
1.17584
1.18011
1.17856
1.18112
1.17856
1.18016
1.17584
1.17747
1.1706
1.17447
1.16419
1.1743
1.18656
1.18524
1.19268
1.1913
1.19612
1.19417
1.19723
1.19414
1.19616
1.19121
1.19275
1.18508
1.18691
1.17451
1.14537
1.15937
1.1575
1.16662
1.16472
1.17089
1.16829
1.17232
1.16823
1.17087
1.16452
1.16651
1.15717
1.15938
1.1452
1.18523
1.19268
1.19122
1.19637
1.19488
1.19873
1.19678
1.19956
1.19673
1.19876
1.19471
1.1964
1.19091
1.19295
1.18556
1.19703
1.19331
1.19288
1.19148
1.19086
1.19114
1.19044
1.19123
1.19042
1.19129
1.19078
1.19177
1.19274
1.19438
1.19827
1.22802
1.22081
1.2204
1.21669
1.21588
1.21444
1.21411
1.21385
1.21418
1.21454
1.21605
1.21684
1.22082
1.22162
1.23011
1.19543
1.19692
1.19746
1.19796
1.19776
1.198
1.1978
1.19806
1.1978
1.19801
1.19768
1.19789
1.19746
1.19742
1.19642
1.21443
1.21446
1.21485
1.21438
1.21422
1.21386
1.21395
1.21383
1.21397
1.21389
1.21422
1.21437
1.21504
1.21512
1.21563
1.19787
1.19891
1.20009
1.20128
1.20218
1.2031
1.20374
1.20401
1.20373
1.20308
1.20211
1.20121
1.20022
1.19951
1.19892
1.20533
1.20665
1.2085
1.21059
1.21248
1.21415
1.21536
1.21577
1.21536
1.21413
1.21242
1.21055
1.20869
1.20729
1.20636
1.19631
1.19786
1.20025
1.20316
1.20577
1.2081
1.2096
1.21019
1.20959
1.20807
1.2057
1.20312
1.20043
1.19842
1.19718
1.20303
1.20439
1.2067
1.2095
1.21201
1.2142
1.21552
1.21608
1.21551
1.21416
1.21193
1.20946
1.20685
1.20484
1.2037
1.20219
1.20306
1.20472
1.20665
1.20833
1.20981
1.21059
1.211
1.21058
1.20977
1.20826
1.2066
1.20483
1.20341
1.20272
1.20986
1.21016
1.21094
1.2117
1.21232
1.21289
1.21311
1.21332
1.2131
1.21285
1.21225
1.21166
1.21104
1.21047
1.21034
1.21079
1.21074
1.21089
1.2108
1.21062
1.21051
1.21034
1.21039
1.21032
1.21046
1.21055
1.21076
1.21102
1.21114
1.21139
1.21369
1.2137
1.2138
1.21354
1.21313
1.21274
1.21242
1.21238
1.2124
1.21268
1.21304
1.21352
1.21404
1.21431
1.21459
1.21131
1.21167
1.21216
1.21234
1.21223
1.21196
1.21171
1.21165
1.21168
1.21189
1.21214
1.21237
1.21252
1.2125
1.21248
SCALARS u-velocity float 1
LOOKUP_TABLE default
98.8968
98.9996
99.1291
99.3253
99.5035
99.6664
99.7711
99.8084
99.7733
99.6707
99.5097
99.3332
99.1383
99.0098
98.9075
97.1188
97.2795
97.5472
97.9103
98.2569
98.5772
98.7732
98.8558
98.775
98.5808
98.2621
97.9168
97.5547
97.2877
97.1272
98.2983
98.3658
98.5242
98.7196
98.9132
99.1012
99.2051
99.2632
99.2062
99.1034
98.9162
98.7234
98.5284
98.3704
98.3029
97.4042
97.3768
97.3866
97.3796
97.385
97.4033
97.4026
97.4196
97.4029
97.4038
97.3856
97.3803
97.387
97.3772
97.4043
98.9074
98.8237
98.7334
98.5884
98.4537
98.3434
98.2584
98.2443
98.2587
98.344
98.4545
98.5895
98.7348
98.8254
98.9092
97.9023
97.7531
97.5375
97.2348
96.9493
96.6904
96.5203
96.4615
96.5195
96.6889
96.947
97.2321
97.5339
97.7489
97.8974
99.5485
99.4618
99.2751
99.0241
98.7443
98.4985
98.323
98.2672
98.3241
98.5006
98.7478
99.0287
99.2818
99.4703
99.5587
97.6178
97.5045
97.3166
97.1206
96.9279
96.7583
96.6519
96.6087
96.6523
96.7594
96.9288
97.1226
97.3166
97.5025
97.6126
98.7897
99.0783
99.1944
99.4235
99.4915
99.6132
99.6226
99.6633
99.6271
99.6215
99.5053
99.4398
99.2176
99.1094
98.8308
96.0317
95.999
96.1881
96.5123
96.7569
97.0546
97.1966
97.2975
97.2023
97.0678
96.7707
96.5361
96.2075
96.0131
96.016
96.1507
98.035
98.4803
99.8056
100.429
101.082
101.339
101.495
101.348
101.099
100.46
99.84
98.5256
98.0961
96.2894
88.0023
92.9212
94.8044
96.629
97.7027
98.8796
99.3309
99.6463
99.3466
98.9183
97.7438
96.7023
94.8822
93.075
87.9218
88.4979
92.58
99.9642
102.209
104.655
105.088
106.106
105.859
106.122
105.119
104.71
102.302
100.092
92.6478
88.7779
121.5
118.06
118.569
117.159
117.421
115.969
116.331
115.493
116.331
115.943
117.427
117.086
118.515
118.114
122.671
132.357
128.201
125.221
122.693
121.653
119.938
119.739
118.993
119.755
119.956
121.698
122.69
125.289
128.662
133.524
134.762
131.099
127.901
125.502
124.297
122.875
122.484
121.952
122.515
122.927
124.382
125.593
128.141
131.731
135.905
116.407
118.782
116.668
116.895
115.842
115.932
115.191
115.433
115.212
115.933
115.885
116.846
116.804
119.322
118.648
88.4925
100.656
101.628
105.144
105.387
107.42
107.041
107.956
107.008
107.35
105.24
104.854
101.344
101.262
91.3412
78.6796
89.9037
94.8906
98.283
99.5073
101.243
101.432
102.064
101.389
101.185
99.2881
98.0106
94.6762
90.9687
81.0985
95.3213
97.9573
101.265
102.342
102.875
103.431
103.572
103.812
103.569
103.414
102.759
102.176
101.408
99.2366
97.8453
90.4998
93.2376
96.4511
98.1136
98.7898
99.3961
99.613
99.8419
99.6046
99.3549
98.6279
97.9251
96.6455
94.5458
92.9037
95.671
97.6903
100.273
101.523
101.932
102.086
102.175
102.245
102.179
102.053
101.796
101.394
100.594
99.0419
97.9812
93.6693
95.5448
97.8925
99.1641
99.508
99.547
99.5439
99.5807
99.543
99.4945
99.3528
99.0482
98.2691
96.9191
95.9238
96.2315
97.8812
99.9381
101.085
101.34
101.234
101.146
101.127
101.143
101.172
101.187
101.005
100.374
99.2613
98.4088
95.0785
96.6391
98.5962
99.7986
100.126
100.049
99.9645
99.9376
99.9541
99.9726
99.9658
99.7425
99.0792
98.0362
97.2214
95.9866
97.4874
99.4084
100.721
101.197
101.226
101.195
101.176
101.177
101.138
101.037
100.692
99.9275
98.8813
98.0742
95.1223
96.6145
98.5868
100.068
100.738
100.912
100.949
100.949
100.922
100.811
100.576
100.063
99.1396
98.0142
97.1778
95.4192
96.8819
98.8766
100.467
101.277
101.557
101.635
101.646
101.599
101.445
101.117
100.485
99.4546
98.275
97.4308
95.2437
96.6615
98.6504
100.294
101.187
101.528
101.622
101.635
101.576
101.405
101.029
100.332
99.2519
98.0515
97.2216
95.5436
96.8789
98.7897
100.392
101.287
101.631
101.71
101.716
101.655
101.498
101.132
100.45
99.4082
98.2577
97.4806
SCALARS v-velocity float 1
LOOKUP_TABLE default
-0.0212678
-0.0380468
-0.0709939
-0.0707082
-0.074455
-0.0529533
-0.0306181
0.000831073
0.0322313
0.0545181
0.0758584
0.0719355
0.0719189
0.0386512
0.0214725
0.208
0.565537
0.81017
0.935408
0.861903
0.680806
0.363433
0.00487964
-0.353898
-0.671809
-0.853859
-0.928682
-0.805039
-0.56241
-0.20683
0.389047
1.01804
1.50776
1.7136
1.61183
1.25928
0.68018
0.00527974
-0.669865
-1.24972
-1.6034
-1.70677
-1.50261
-1.01503
-0.387891
0.429267
1.10754
1.67577
1.896
1.814
1.41555
0.773659
0.00743288
-0.75918
-1.40227
-1.80243
-1.88678
-1.66891
-1.10354
-0.427767
0.381151
0.971826
1.51233
1.71235
1.67894
1.31327
0.728597
0.00574433
-0.717381
-1.30332
-1.67051
-1.70604
-1.50788
-0.96941
-0.380269
0.26373
0.645667
1.05046
1.17311
1.1932
0.928271
0.529742
0.00775959
-0.514613
-0.914409
-1.18108
-1.16337
-1.04305
-0.641229
-0.262057
0.0530136
0.112548
0.259323
0.279387
0.349335
0.265477
0.17133
0.00366165
-0.163847
-0.259107
-0.343799
-0.275479
-0.257002
-0.111468
-0.0529234
-0.0255921
-0.153798
-0.170602
-0.238461
-0.166663
-0.147364
-0.0556141
0.00965191
0.0743427
0.165814
0.183684
0.2537
0.183603
0.162744
0.0294642
-0.147566
-0.333075
-0.439271
-0.513281
-0.433475
-0.348094
-0.167271
0.00544404
0.179627
0.357764
0.442791
0.519491
0.441639
0.332373
0.144111
0.23711
0.162805
0.182847
0.154215
0.0713298
0.0501529
0.0189032
0.0188464
0.016006
-0.0133302
-0.0379053
-0.122576
-0.154889
-0.139037
-0.220543
1.04577
1.60427
1.83056
1.70713
1.47232
1.04076
0.557478
0.0222884
-0.504993
-1.0002
-1.42887
-1.67802
-1.80536
-1.6003
-1.07663
-0.26601
3.38615
2.59668
3.14201
2.09458
1.73672
0.787955
0.0369959
-0.724779
-1.66598
-2.03838
-3.08209
-2.56547
-3.36427
0.305085
22.7775
19.6976
15.8698
12.8412
9.04321
6.12242
2.95868
0.067818
-2.79463
-5.98413
-8.85874
-12.7026
-15.642
-19.5235
-22.5478
24.6626
15.7802
12.9288
8.53641
6.51506
3.78072
2.01844
0.0762569
-1.87433
-3.6253
-6.3717
-8.36521
-12.7586
-15.5818
-24.8309
11.1824
6.99617
6.63673
4.10541
3.67301
1.98148
1.20079
0.0689828
-1.11435
-1.84948
-3.61418
-3.98496
-6.63326
-6.96075
-11.4124
-8.11687
-8.41282
-4.62833
-4.7256
-2.35498
-2.06912
-0.675096
0.124568
0.853317
2.32044
2.53774
4.98877
4.8297
8.69834
8.34567
-20.6505
-17.9116
-12.0503
-9.99218
-6.20754
-4.38132
-1.84507
0.153683
2.06639
4.71221
6.46253
10.4035
12.4255
18.5742
21.3241
-23.1639
-18.2946
-14.4105
-10.8782
-7.87962
-5.00528
-2.43819
0.18518
2.63405
5.39914
8.07956
11.3605
14.6543
19.0559
23.7517
-2.49268
-0.640661
-2.39038
-1.52036
-1.90955
-1.04028
-0.683373
0.0416268
0.704944
1.10945
1.91119
1.56453
2.36098
0.571937
2.35609
-1.90557
-2.29501
-2.78291
-2.3027
-2.10134
-1.33169
-0.723183
0.0540441
0.786304
1.42921
2.15897
2.38521
2.81728
2.25147
1.88315
-0.148116
-0.175809
-0.196371
-0.00185775
-0.109582
0.011765
-0.0236279
0.00860119
0.0256792
0.00137248
0.117192
0.0189713
0.191594
0.125773
0.120379
-0.0703526
-0.120711
-0.0391584
0.0878153
0.0606639
0.0801165
0.0382266
0.0104132
-0.0260231
-0.0617238
-0.043536
-0.0707049
0.0288557
0.0704586
0.0437519
0.0470528
0.0775213
0.221303
0.26405
0.230506
0.148196
0.0743392
0.000759052
-0.0751161
-0.143777
-0.220367
-0.253093
-0.230958
-0.112972
-0.0671411
-0.0594216
-0.195123
-0.196243
-0.245918
-0.244596
-0.246631
-0.139328
-0.00105986
0.136845
0.249375
0.253341
0.252816
0.182845
0.161683
0.0410297
-0.19391
-0.537954
-0.724112
-0.857363
-0.813789
-0.690188
-0.377219
-0.00145501
0.375391
0.694269
0.82472
0.867122
0.717744
0.51652
0.181587
-0.319901
-0.843327
-1.18531
-1.34906
-1.25764
-1.01084
-0.546906
-0.0027952
0.542916
1.01277
1.26523
1.35401
1.17572
0.822666
0.308827
-0.362001
-0.932217
-1.32884
-1.47669
-1.36265
-1.0646
-0.571955
-0.0013072
0.571251
1.06974
1.37256
1.48328
1.32247
0.916624
0.353644
-0.308087
-0.78294
-1.12362
-1.2288
-1.13315
-0.875022
-0.471853
-0.00236341
0.469151
0.877855
1.1395
1.23052
1.11294
0.765153
0.299278
-0.212254
-0.535126
-0.773893
-0.839234
-0.781657
-0.60414
-0.329557
-0.00193816
0.32775
0.607442
0.787402
0.839449
0.762248
0.517423
0.203716
-0.0846573
-0.21177
-0.299467
-0.318551
-0.303301
-0.242064
-0.138098
-0.00307977
0.134025
0.242701
0.305466
0.314134
0.283165
0.190584
0.074832
SCALARS Mach float 1
LOOKUP_TABLE default
29.6226
29.6859
29.7659
29.8874
29.9978
30.099
30.1641
30.1873
30.1654
30.1016
30.0017
29.8922
29.7716
29.6922
29.6291
28.5487
28.6472
28.8119
29.0352
29.2482
29.4454
29.5658
29.6168
29.5669
29.4476
29.2513
29.0391
28.8164
28.6521
28.5538
29.238
29.2808
29.3809
29.5017
29.6186
29.7309
29.7908
29.8255
29.7914
29.7321
29.6203
29.5038
29.3833
29.2835
29.2407
28.7407
28.7247
28.7324
28.7262
28.7244
28.7286
28.7213
28.7296
28.7214
28.7287
28.7246
28.7264
28.7325
28.7248
28.7407
29.6363
29.5828
29.5256
29.4302
29.3395
29.2622
29.202
29.1907
29.2021
29.2624
29.3398
29.4307
29.5263
29.5836
29.6373
29.0837
28.9889
28.8526
28.6596
28.4771
28.3108
28.2007
28.1629
28.2001
28.3098
28.4755
28.6577
28.8503
28.9862
29.0807
30.0505
29.991
29.8672
29.7002
29.517
29.3558
29.2415
29.205
29.2421
29.3569
29.5189
29.7028
29.871
29.996
30.0565
28.9319
28.8603
28.7404
28.6133
28.4877
28.3774
28.3075
28.2797
28.3077
28.378
28.4882
28.6145
28.7404
28.8591
28.9288
29.577
29.7487
29.8142
29.9468
29.981
30.0482
30.0493
30.0722
30.052
30.0532
29.9893
29.9566
29.8281
29.7673
29.6015
27.9838
27.9675
28.0766
28.268
28.4097
28.5854
28.6674
28.7276
28.6707
28.5932
28.4179
28.282
28.088
27.9759
27.9748
27.9666
29.0873
29.3591
30.1608
30.5394
30.939
31.0945
31.1911
31.0999
30.9489
30.5581
30.1816
29.3859
29.1238
28.0477
23.478
26.2309
27.2865
28.369
28.9857
29.6904
29.9542
30.1455
29.9635
29.7131
29.0096
28.411
27.3312
26.3177
23.4358
25.1789
27.05
30.9587
32.0881
33.3754
33.5242
34.09
33.9072
34.0974
33.5393
33.4003
32.1355
31.0143
27.068
25.297
46.8727
43.2022
43.3395
41.9968
42.1022
40.958
41.1935
40.5736
41.1918
40.9359
42.1013
41.9352
43.2874
43.2233
47.7833
53.7331
50.1144
47.8006
45.754
44.9787
43.6565
43.5163
42.95
43.5277
43.6677
45.0109
45.7479
47.8534
50.4764
54.7095
55.7349
52.6607
49.997
48.0689
47.1153
45.9933
45.7104
45.2824
45.7345
46.0359
47.1842
48.1465
50.1935
53.1903
56.7108
42.4767
43.8115
41.7825
41.7679
40.8498
40.827
40.2743
40.4131
40.292
40.8365
40.8913
41.7579
41.9095
44.2793
44.184
25.3768
31.7748
31.9939
33.9337
33.9218
35.1204
34.8212
35.3947
34.8025
35.0864
33.8379
33.779
31.8413
32.2353
27.0286
18.6803
24.4206
27.2361
29.2287
29.9705
31.0257
31.1425
31.5322
31.1162
30.9899
29.8374
29.0654
27.1114
25.0057
19.8502
27.5713
29.1284
31.1459
31.8053
32.1365
32.4751
32.5624
32.7102
32.5608
32.4653
32.0641
31.7028
31.2356
29.8999
29.0634
24.7639
26.2962
28.151
29.1372
29.5418
29.9076
30.0386
30.1777
30.0335
29.8825
29.4442
29.0242
28.2655
27.0455
26.1082
27.7471
28.9374
30.4954
31.2616
31.5104
31.6015
31.6536
31.6961
31.6563
31.5805
31.4258
31.1814
30.693
29.7514
29.1163
26.5601
27.6383
29.0172
29.7733
29.973
29.9886
29.9812
30.0016
29.9806
29.9566
29.8787
29.703
29.243
28.4466
27.8659
28.0758
29.0471
30.2794
30.9704
31.116
31.0389
30.9779
30.963
30.976
31.001
31.0212
30.9208
30.5468
29.8793
29.3717
27.3851
28.2905
29.4438
30.1575
30.3442
30.2862
30.2277
30.2084
30.2214
30.2397
30.2466
30.1233
29.735
29.1201
28.6421
27.9346
28.8147
29.9581
30.7475
31.0295
31.0375
31.0118
30.9972
31.0008
30.9831
30.9306
30.7293
30.2734
29.6492
29.1698
27.4186
28.2875
29.4541
30.3433
30.7455
30.8462
30.8647
30.8626
30.8484
30.7844
30.6468
30.34
29.7869
29.1172
28.6226
27.6088
28.4659
29.6541
30.6182
31.1131
31.2834
31.3304
31.336
31.3081
31.214
31.0146
30.6289
30.0039
29.2955
28.7927
27.4875
28.3188
29.5051
30.5039
31.0533
31.2644
31.3225
31.3304
31.2942
31.1879
30.9557
30.5276
29.8692
29.1468
28.6519
27.6756
28.463
29.609
30.5886
31.1428
31.3583
31.4085
31.4123
31.3742
31.2754
31.0469
30.6245
29.9855
29.2889
28.823
