# vtk DataFile Version 3.0
Structured Grid Example
ASCII
DATASET STRUCTURED_GRID
DIMENSIONS 15 30 1
POINTS 450 FLOAT
0.0833327 0.0333334 0
0.0833313 0.1 0
0.0833301 0.166667 0
0.083329 0.233333 0
0.0833281 0.3 0
0.0833274 0.366667 0
0.083327 0.433333 0
0.0833268 0.5 0
0.083327 0.566667 0
0.0833274 0.633333 0
0.0833281 0.7 0
0.083329 0.766667 0
0.0833301 0.833333 0
0.0833313 0.9 0
0.0833327 0.966667 0
0.249998 0.0333334 0
0.249993 0.1 0
0.249989 0.166667 0
0.249986 0.233334 0
0.249983 0.3 0
0.24998 0.366667 0
0.249979 0.433333 0
0.249979 0.5 0
0.249979 0.566667 0
0.24998 0.633333 0
0.249983 0.7 0
0.249986 0.766666 0
0.249989 0.833333 0
0.249993 0.9 0
0.249998 0.966667 0
0.416662 0.0333336 0
0.416654 0.100001 0
0.416646 0.166668 0
0.416639 0.233334 0
0.416633 0.300001 0
0.416628 0.366667 0
0.416626 0.433334 0
0.416625 0.5 0
0.416626 0.566666 0
0.416628 0.633333 0
0.416633 0.699999 0
0.416639 0.766666 0
0.416646 0.833332 0
0.416654 0.899999 0
0.416662 0.966666 0
0.583326 0.033334 0
0.58331 0.100002 0
0.583296 0.166669 0
0.583284 0.233336 0
0.583273 0.300003 0
0.583266 0.366669 0
0.583261 0.433335 0
0.583259 0.5 0
0.583261 0.566665 0
0.583266 0.633331 0
0.583273 0.699997 0
0.583284 0.766664 0
0.583296 0.833331 0
0.58331 0.899998 0
0.583326 0.966666 0
0.749987 0.0333351 0
0.749961 0.100005 0
0.749937 0.166674 0
0.749915 0.233342 0
0.749898 0.300008 0
0.749884 0.366673 0
0.749876 0.433337 0
0.749874 0.5 0
0.749876 0.566663 0
0.749884 0.633327 0
0.749898 0.699992 0
0.749915 0.766658 0
0.749937 0.833326 0
0.749961 0.899995 0
0.749987 0.966665 0
0.916644 0.033338 0
0.916601 0.100013 0
0.91656 0.166686 0
0.916524 0.233356 0
0.916494 0.300021 0
0.916472 0.366683 0
0.916458 0.433342 0
0.916454 0.5 0
0.916458 0.566658 0
0.916472 0.633317 0
0.916494 0.699979 0
0.916524 0.766644 0
0.91656 0.833314 0
0.916601 0.899987 0
0.916644 0.966662 0
1.0833 0.0333461 0
1.08322 0.100036 0
1.08315 0.166719 0
1.08309 0.233394 0
1.08304 0.300058 0
1.08301 0.366712 0
1.08298 0.433358 0
1.08298 0.5 0
1.08298 0.566642 0
1.08301 0.633288 0
1.08304 0.699942 0
1.08309 0.766606 0
1.08315 0.833281 0
1.08322 0.899964 0
1.0833 0.966654 0
1.24994 0.0333682 0
1.24981 0.100098 0
1.2497 0.16681 0
1.24959 0.233497 0
1.24951 0.300156 0
1.24945 0.366788 0
1.24942 0.433399 0
1.2494 0.5 0
1.24942 0.566601 0
1.24945 0.633212 0
1.24951 0.699844 0
1.24959 0.766503 0
1.2497 0.83319 0
1.24981 0.899902 0
1.24994 0.966632 0
1.41656 0.0334298 0
1.41634 0.10027 0
1.41615 0.16706 0
1.41598 0.233778 0
1.41585 0.300419 0
1.41575 0.36699 0
1.41569 0.433509 0
1.41567 0.5 0
1.41569 0.566491 0
1.41575 0.63301 0
1.41585 0.699581 0
1.41598 0.766222 0
1.41615 0.83294 0
1.41634 0.89973 0
1.41656 0.96657 0
1.58313 0.0336075 0
1.58275 0.10076 0
1.58242 0.167751 0
1.58215 0.234537 0
1.58195 0.301115 0
1.58181 0.367517 0
1.58173 0.433791 0
1.58171 0.5 0
1.58173 0.566209 0
1.58181 0.632483 0
1.58195 0.698885 0
1.58215 0.765463 0
1.58242 0.832249 0
1.58275 0.89924 0
1.58313 0.966392 0
1.74959 0.0341677 0
1.74885 0.102235 0
1.74829 0.169714 0
1.74791 0.236575 0
1.74766 0.302905 0
1.74751 0.368829 0
1.74744 0.434482 0
1.74741 0.5 0
1.74744 0.565518 0
1.74751 0.631171 0
1.74766 0.697095 0
1.74791 0.763425 0
1.74829 0.830286 0
1.74885 0.897765 0
1.74959 0.965832 0
1.91555 0.0363295 0
1.91388 0.107253 0
1.91312 0.175401 0
1.91283 0.241837 0
1.91276 0.307169 0
1.91277 0.371793 0
1.9128 0.435995 0
1.91281 0.5 0
1.9128 0.564005 0
1.91277 0.628207 0
1.91276 0.692831 0
1.91283 0.758163 0
1.91312 0.824599 0
1.91388 0.892747 0
1.91555 0.963671 0
2.07838 0.0591504 0
2.07417 0.125973 0
2.07554 0.190391 0
2.07663 0.253364 0
2.07743 0.315525 0
2.07798 0.377223 0
2.07829 0.438667 0
2.0784 0.5 0
2.07829 0.561333 0
2.07798 0.622777 0
2.07743 0.684475 0
2.07663 0.746636 0
2.07554 0.809609 0
2.07417 0.874027 0
2.07838 0.94085 0
2.24384 0.096456 0
2.23911 0.153168 0
2.24152 0.210396 0
2.24318 0.267878 0
2.24431 0.325632 0
2.24503 0.383617 0
2.24544 0.441767 0
2.24557 0.5 0
2.24544 0.558233 0
2.24503 0.616383 0
2.24431 0.674368 0
2.24318 0.732122 0
2.24152 0.789604 0
2.23911 0.846832 0
2.24384 0.903544 0
2.41462 0.118677 0
2.41292 0.170231 0
2.41356 0.223198 0
2.41406 0.277268 0
2.41444 0.332207 0
2.4147 0.387788 0
2.41485 0.44379 0
2.4149 0.5 0
2.41485 0.55621 0
2.4147 0.612212 0
2.41444 0.667793 0
2.41406 0.722732 0
2.41356 0.776802 0
2.41292 0.829769 0
2.41462 0.881323 0
2.58538 0.118677 0
2.58708 0.170231 0
2.58644 0.223198 0
2.58594 0.277268 0
2.58556 0.332207 0
2.5853 0.387788 0
2.58515 0.44379 0
2.5851 0.5 0
2.58515 0.55621 0
2.5853 0.612212 0
2.58556 0.667793 0
2.58594 0.722732 0
2.58644 0.776802 0
2.58708 0.829769 0
2.58538 0.881323 0
2.75616 0.096456 0
2.76089 0.153168 0
2.75848 0.210396 0
2.75682 0.267878 0
2.75569 0.325632 0
2.75497 0.383617 0
2.75456 0.441767 0
2.75443 0.5 0
2.75456 0.558233 0
2.75497 0.616383 0
2.75569 0.674368 0
2.75682 0.732122 0
2.75848 0.789604 0
2.76089 0.846832 0
2.75616 0.903544 0
2.92162 0.0591504 0
2.92583 0.125973 0
2.92446 0.190391 0
2.92337 0.253364 0
2.92257 0.315525 0
2.92202 0.377223 0
2.92171 0.438667 0
2.9216 0.5 0
2.92171 0.561333 0
2.92202 0.622777 0
2.92257 0.684475 0
2.92337 0.746636 0
2.92446 0.809609 0
2.92583 0.874027 0
2.92162 0.94085 0
3.08445 0.0363295 0
3.08612 0.107253 0
3.08688 0.175401 0
3.08717 0.241837 0
3.08724 0.307169 0
3.08723 0.371793 0
3.0872 0.435995 0
3.08719 0.5 0
3.0872 0.564005 0
3.08723 0.628207 0
3.08724 0.692831 0
3.08717 0.758163 0
3.08688 0.824599 0
3.08612 0.892747 0
3.08445 0.963671 0
3.25041 0.0341677 0
3.25115 0.102235 0
3.25171 0.169714 0
3.25209 0.236575 0
3.25234 0.302905 0
3.25249 0.368829 0
3.25256 0.434482 0
3.25259 0.5 0
3.25256 0.565518 0
3.25249 0.631171 0
3.25234 0.697095 0
3.25209 0.763425 0
3.25171 0.830286 0
3.25115 0.897765 0
3.25041 0.965832 0
3.41687 0.0336075 0
3.41725 0.10076 0
3.41758 0.167751 0
3.41785 0.234537 0
3.41805 0.301115 0
3.41819 0.367517 0
3.41827 0.433791 0
3.41829 0.5 0
3.41827 0.566209 0
3.41819 0.632483 0
3.41805 0.698885 0
3.41785 0.765463 0
3.41758 0.832249 0
3.41725 0.89924 0
3.41687 0.966392 0
3.58344 0.0334298 0
3.58366 0.10027 0
3.58385 0.16706 0
3.58402 0.233778 0
3.58415 0.300419 0
3.58425 0.36699 0
3.58431 0.433509 0
3.58433 0.5 0
3.58431 0.566491 0
3.58425 0.63301 0
3.58415 0.699581 0
3.58402 0.766222 0
3.58385 0.83294 0
3.58366 0.89973 0
3.58344 0.96657 0
3.75006 0.0333682 0
3.75019 0.100098 0
3.7503 0.16681 0
3.75041 0.233497 0
3.75049 0.300156 0
3.75055 0.366788 0
3.75058 0.433399 0
3.7506 0.5 0
3.75058 0.566601 0
3.75055 0.633212 0
3.75049 0.699844 0
3.75041 0.766503 0
3.7503 0.83319 0
3.75019 0.899902 0
3.75006 0.966632 0
3.9167 0.0333461 0
3.91678 0.100036 0
3.91685 0.166719 0
3.91691 0.233394 0
3.91696 0.300058 0
3.91699 0.366712 0
3.91702 0.433358 0
3.91702 0.5 0
3.91702 0.566642 0
3.91699 0.633288 0
3.91696 0.699942 0
3.91691 0.766606 0
3.91685 0.833281 0
3.91678 0.899964 0
3.9167 0.966654 0
4.08336 0.033338 0
4.0834 0.100013 0
4.08344 0.166686 0
4.08348 0.233356 0
4.08351 0.300021 0
4.08353 0.366683 0
4.08354 0.433342 0
4.08355 0.5 0
4.08354 0.566658 0
4.08353 0.633317 0
4.08351 0.699979 0
4.08348 0.766644 0
4.08344 0.833314 0
4.0834 0.899987 0
4.08336 0.966662 0
4.25001 0.0333351 0
4.25004 0.100005 0
4.25006 0.166674 0
4.25008 0.233342 0
4.2501 0.300008 0
4.25012 0.366673 0
4.25012 0.433337 0
4.25013 0.5 0
4.25012 0.566663 0
4.25012 0.633327 0
4.2501 0.699992 0
4.25008 0.766658 0
4.25006 0.833326 0
4.25004 0.899995 0
4.25001 0.966665 0
4.41667 0.033334 0
4.41669 0.100002 0
4.4167 0.166669 0
4.41672 0.233336 0
4.41673 0.300003 0
4.41673 0.366669 0
4.41674 0.433335 0
4.41674 0.5 0
4.41674 0.566665 0
4.41673 0.633331 0
4.41673 0.699997 0
4.41672 0.766664 0
4.4167 0.833331 0
4.41669 0.899998 0
4.41667 0.966666 0
4.58334 0.0333336 0
4.58335 0.100001 0
4.58335 0.166668 0
4.58336 0.233334 0
4.58337 0.300001 0
4.58337 0.366667 0
4.58337 0.433334 0
4.58338 0.5 0
4.58337 0.566666 0
4.58337 0.633333 0
4.58337 0.699999 0
4.58336 0.766666 0
4.58335 0.833332 0
4.58335 0.899999 0
4.58334 0.966666 0
4.75 0.0333334 0
4.75001 0.1 0
4.75001 0.166667 0
4.75001 0.233334 0
4.75002 0.3 0
4.75002 0.366667 0
4.75002 0.433333 0
4.75002 0.5 0
4.75002 0.566667 0
4.75002 0.633333 0
4.75002 0.7 0
4.75001 0.766666 0
4.75001 0.833333 0
4.75001 0.9 0
4.75 0.966667 0
4.91667 0.0333334 0
4.91667 0.1 0
4.91667 0.166667 0
4.91667 0.233333 0
4.91667 0.3 0
4.91667 0.366667 0
4.91667 0.433333 0
4.91667 0.5 0
4.91667 0.566667 0
4.91667 0.633333 0
4.91667 0.7 0
4.91667 0.766667 0
4.91667 0.833333 0
4.91667 0.9 0
4.91667 0.966667 0
POINT_DATA 450
SCALARS pressure float 1
LOOKUP_TABLE default
94486.8
94484.5
94480.1
94474.3
94468.5
94463.2
94459.9
94458.5
94459.9
94463.2
94468.6
94474.3
94480.1
94484.5
94486.8
94205.7
94206.9
94206
94206
94205.9
94205.1
94205.7
94204.8
94205.7
94205.2
94206
94206.1
94206.1
94207
94205.9
94497.4
94505.5
94515.7
94531.4
94546.5
94559.8
94569.4
94571.9
94569.5
94559.9
94546.7
94531.6
94516
94505.8
94497.7
94071.3
94084
94103
94129.9
94156.9
94180.3
94197.3
94201.9
94197.3
94180.4
94157
94130.1
94103.1
94084.1
94071.5
94523.6
94540.1
94566.5
94603.5
94640
94673.1
94695.2
94702.9
94695.3
94673.2
94640.2
94603.8
94566.8
94540.4
94523.9
93951.8
93968
93998.6
94037.3
94078.9
94113.5
94139.3
94146.1
94139.2
94113.4
94078.7
94037
93998.3
93967.7
93951.5
94631.2
94644.2
94671
94704.7
94739.9
94771
94791.8
94799.3
94791.8
94770.9
94739.8
94704.6
94670.9
94644.1
94631.1
93887.8
93888.9
93909.5
93920.9
93947.9
93958.4
93977.3
93974.5
93976.9
93957.7
93946.8
93919.7
93908
93887.3
93886
94857.2
94847.1
94851.6
94843.6
94848.6
94843.7
94848.5
94844.2
94848.3
94843.1
94848
94842.5
94850.7
94845.8
94856.1
93919
93848.2
93841.2
93755.7
93746.9
93682.7
93688.6
93655.1
93687.5
93680.8
93743.7
93752
93836.4
93843
93913.4
95322.2
95171.2
95122.2
94993.8
94944.8
94859.5
94843.8
94809.6
94843.4
94857.3
94943.5
94989.8
95120.2
95166.1
95319.4
94625.5
93853.7
93795.5
93355.3
93282.7
93064.9
93044.8
92969.2
93042.3
93061.2
93275.2
93347.2
93782.5
93839.2
94606.6
96149.6
95497.3
95071.4
94756.3
94593.9
94443.5
94393.7
94350.4
94393
94437.6
94592.5
94742.8
95070.8
95472
96150.1
89161
90233
89839.7
90520
90305.7
90728.9
90530.5
90802
90530.1
90733.4
90304.6
90531.8
89838.3
90259.2
89152.5
90224.5
91531.8
91418.4
92235.2
92068.8
92585.4
92354
92691.3
92350.5
92588.3
92057.9
92242.1
91399
91545
90188.4
87387.2
88862.7
88637.5
89617.3
89372.7
90025.1
89709.9
90152.6
89702.9
90021.5
89350.7
89607
88597
88837.5
87312.5
91791.9
92547.8
92309
92853.2
92622.9
93026.2
92765.5
93081.5
92759.8
93029.2
92604.2
92858.5
92272.5
92550.8
91728
93284
92756.8
92613.2
92415.3
92276.7
92263.9
92137.1
92224
92134.2
92280.4
92267.7
92452.8
92595
92828.2
93278.1
96913.4
95872.2
95674.6
95166.6
95004.8
94784.5
94706
94666
94712.5
94796.9
95026.3
95191.8
95717.5
95909.8
97012.5
93052.2
93120.7
93081.5
93093.1
93044.6
93049.8
93007.2
93030.8
93006.1
93050.9
93040.8
93093.7
93074.6
93117.5
93042.9
95138.8
95055.3
95007.2
94905
94859.4
94790.2
94772.6
94749.7
94774.8
94794.4
94866
94912.4
95017.1
95064.7
95151.2
93507.2
93515
93514
93520.9
93520.4
93525.7
93523.8
93527.4
93523.6
93525.6
93519.6
93520.5
93512.8
93514.3
93506.4
94578.8
94581.8
94585.7
94590
94600.1
94603.3
94612.5
94610.1
94613
94604.2
94601.5
94591.5
94587.4
94583.3
94580.3
93717.1
93731.4
93750.6
93779.7
93807.6
93832.7
93850.2
93855.4
93850.2
93832.8
93807.7
93779.9
93750.9
93731.8
93717.4
94328.6
94343.7
94366.8
94399.9
94433.3
94462.4
94483.5
94489.4
94483.6
94462.6
94433.5
94400.1
94367
94343.7
94328.4
93842.3
93857.3
93882.1
93916.7
93950.9
93982
94002.8
94010.1
94003
93982.3
93951.3
93917.1
93882.6
93857.8
93842.8
94232.9
94244.5
94265.3
94293.6
94321.9
94347.8
94364.6
94371
94364.7
94347.8
94322
94293.7
94265.3
94244.4
94232.7
93946.9
93954.1
93968.3
93987
94005.6
94022.9
94033.6
94038.2
94033.7
94023.1
94005.8
93987.4
93968.8
93954.6
93947.4
94230.6
94233.9
94241.1
94250.2
94259.2
94267.9
94272.9
94275.4
94272.8
94267.9
94259.1
94250.1
94241
94233.7
94230.5
94021.2
94021.6
94022.8
94024
94025
94026.2
94026.5
94027.1
94026.5
94026.3
94025.1
94024.2
94023.2
94022.1
94021.9
SCALARS density float 1
LOOKUP_TABLE default
1.21471
1.21469
1.21465
1.2146
1.21455
1.2145
1.21447
1.21446
1.21447
1.2145
1.21455
1.2146
1.21465
1.21469
1.21471
1.21212
1.21213
1.21212
1.21212
1.21212
1.21212
1.21212
1.21211
1.21212
1.21212
1.21212
1.21213
1.21213
1.21213
1.21212
1.2148
1.21487
1.21497
1.21511
1.21525
1.21537
1.21546
1.21549
1.21546
1.21538
1.21525
1.21512
1.21497
1.21488
1.2148
1.21089
1.211
1.21118
1.21143
1.21168
1.21189
1.21205
1.21209
1.21205
1.21189
1.21168
1.21143
1.21118
1.21101
1.21089
1.21504
1.21519
1.21543
1.21577
1.21611
1.21641
1.21662
1.21669
1.21662
1.21641
1.21611
1.21578
1.21544
1.21519
1.21504
1.2098
1.20995
1.21023
1.21059
1.21098
1.2113
1.21153
1.2116
1.21153
1.2113
1.21097
1.21059
1.21023
1.20995
1.2098
1.21601
1.21613
1.21638
1.21669
1.21701
1.2173
1.21749
1.21756
1.21749
1.2173
1.21701
1.21669
1.21638
1.21613
1.21601
1.20927
1.20928
1.20947
1.20958
1.20983
1.20993
1.21011
1.21008
1.2101
1.20993
1.20982
1.20957
1.20946
1.20927
1.20925
1.21796
1.21787
1.21793
1.21787
1.21792
1.21788
1.21793
1.21789
1.21792
1.21788
1.21792
1.21786
1.21792
1.21786
1.21795
1.20991
1.20926
1.20915
1.20833
1.20823
1.20763
1.20768
1.20737
1.20767
1.20761
1.2082
1.20829
1.20911
1.20922
1.20986
1.22125
1.22008
1.21982
1.2188
1.21843
1.2177
1.21758
1.21728
1.21758
1.21768
1.21843
1.21877
1.2198
1.22004
1.22123
1.21917
1.21111
1.21006
1.20557
1.20469
1.2025
1.20225
1.2015
1.20223
1.20246
1.20461
1.20548
1.20993
1.21097
1.219
1.22612
1.22123
1.21805
1.21579
1.21457
1.21339
1.21301
1.21266
1.213
1.21334
1.21457
1.21569
1.21806
1.22097
1.22612
1.16467
1.17526
1.17129
1.1778
1.1758
1.17984
1.17798
1.18054
1.17797
1.17988
1.17579
1.17791
1.17126
1.17563
1.16523
1.1756
1.1883
1.18675
1.19427
1.19257
1.19737
1.19516
1.19831
1.19513
1.1974
1.19248
1.19433
1.18657
1.18864
1.17581
1.14733
1.16173
1.15959
1.16879
1.16651
1.17267
1.16976
1.1739
1.1697
1.17264
1.1663
1.16868
1.15923
1.16174
1.14715
1.18907
1.19664
1.19472
1.19973
1.1977
1.20139
1.19906
1.20192
1.19901
1.20142
1.19753
1.19975
1.1944
1.19692
1.18941
1.20221
1.19815
1.19713
1.19511
1.19383
1.19364
1.19255
1.19329
1.19253
1.1938
1.19374
1.19541
1.19699
1.19925
1.20348
1.23338
1.22575
1.22484
1.22045
1.21904
1.21709
1.21645
1.21608
1.21651
1.2172
1.21921
1.2206
1.22526
1.22659
1.23552
1.19919
1.20066
1.20104
1.20138
1.20095
1.20102
1.20068
1.2009
1.20067
1.20102
1.20088
1.20131
1.20105
1.20116
1.20019
1.21845
1.21839
1.2187
1.21805
1.21768
1.21706
1.21695
1.21675
1.21697
1.21709
1.21768
1.21805
1.21889
1.21905
1.21963
1.20362
1.20429
1.20496
1.20534
1.2054
1.20545
1.20546
1.20551
1.20546
1.20544
1.20533
1.20528
1.20508
1.20487
1.20462
1.21351
1.21409
1.21477
1.21516
1.21534
1.21537
1.21548
1.21547
1.21548
1.21536
1.21528
1.21512
1.21495
1.21469
1.2145
1.20566
1.20629
1.20708
1.20772
1.20808
1.20831
1.20849
1.20855
1.20849
1.20829
1.20801
1.20768
1.20727
1.20689
1.2066
1.21129
1.21189
1.2127
1.21339
1.21381
1.21409
1.21429
1.21435
1.21428
1.21406
1.21374
1.21336
1.21291
1.21249
1.21221
1.2069
1.20748
1.20828
1.20899
1.20944
1.20974
1.20993
1.21
1.20993
1.2097
1.20937
1.20897
1.2085
1.20808
1.20781
1.2104
1.21092
1.21166
1.21231
1.21272
1.21298
1.21313
1.21319
1.21312
1.21293
1.21265
1.2123
1.21189
1.21152
1.21128
1.20808
1.20853
1.2092
1.20977
1.21012
1.21031
1.2104
1.21044
1.21038
1.21026
1.21004
1.20978
1.20945
1.20914
1.20895
1.21004
1.21044
1.21101
1.21149
1.21175
1.21187
1.21191
1.21192
1.21189
1.21181
1.21168
1.2115
1.21127
1.21103
1.21088
1.20961
1.20996
1.21047
1.21088
1.21108
1.21113
1.21113
1.21112
1.2111
1.21108
1.21101
1.2109
1.21074
1.21056
1.21045
SCALARS u-velocity float 1
LOOKUP_TABLE default
99.548
99.5572
99.5733
99.595
99.616
99.6357
99.6477
99.6532
99.648
99.6363
99.6168
99.596
99.5745
99.5585
99.5494
98.6979
98.7031
98.7165
98.7324
98.7491
98.7648
98.774
98.7787
98.7741
98.7649
98.7493
98.7326
98.7167
98.7034
98.6982
99.7079
99.7064
99.7078
99.7076
99.7065
99.7072
99.7049
99.707
99.7053
99.708
99.7076
99.709
99.7094
99.7083
99.7099
98.6503
98.6393
98.6253
98.6053
98.5872
98.5714
98.5605
98.5575
98.5605
98.5715
98.5872
98.6053
98.6252
98.6391
98.6501
99.9103
99.9058
99.8946
99.88
99.8581
99.8434
99.827
99.8269
99.8279
99.8451
99.8607
99.8832
99.8986
99.9103
99.9152
98.5119
98.4868
98.4482
98.4047
98.3653
98.3328
98.3113
98.3046
98.3115
98.3333
98.3657
98.4053
98.4483
98.4865
98.5111
100.043
100.078
100.095
100.126
100.121
100.137
100.123
100.137
100.126
100.141
100.127
100.134
100.106
100.09
100.057
98.2235
98.1697
98.1161
98.093
98.077
98.0809
98.0762
98.0857
98.0774
98.0837
98.08
98.0975
98.1188
98.1703
98.2207
99.7959
100.087
100.237
100.496
100.599
100.765
100.789
100.853
100.794
100.774
100.613
100.513
100.261
100.119
99.8386
97.4151
97.3131
97.4362
97.6583
97.8175
98.0495
98.1417
98.2362
98.1472
98.0624
97.8309
97.6817
97.4553
97.327
97.3987
97.7563
99.6214
99.9868
101.221
101.741
102.311
102.51
102.649
102.518
102.326
101.772
101.254
100.032
99.6813
97.8962
89.5507
94.5574
96.3988
98.2295
99.2757
100.447
100.878
101.196
100.894
100.485
99.317
98.3021
96.4764
94.7109
89.4723
89.9481
94.1645
101.713
104.027
106.552
107.025
108.08
107.834
108.096
107.057
106.608
104.12
101.842
94.2342
90.23
123.776
120.273
120.865
119.44
119.759
118.293
118.697
117.835
118.698
118.268
119.767
119.369
120.814
120.327
124.95
134.826
130.575
127.566
124.976
123.932
122.168
121.983
121.208
122
122.187
123.979
124.976
127.636
131.036
135.997
137.003
133.263
130.028
127.585
126.385
124.93
124.556
124.001
124.587
124.983
126.473
127.678
130.268
133.896
138.149
117.879
120.313
118.2
118.474
117.448
117.56
116.834
117.078
116.856
117.561
117.494
118.425
118.336
120.848
120.128
89.3014
101.702
102.672
106.327
106.604
108.723
108.346
109.297
108.313
108.654
106.459
106.038
102.385
102.3
92.1537
79.2417
90.6868
95.6778
99.155
100.39
102.183
102.357
103.02
102.314
102.126
100.171
98.8843
95.4574
91.7464
81.6613
96.0769
98.7405
101.995
103.015
103.472
103.987
104.075
104.315
104.072
103.972
103.356
102.85
102.133
100.017
98.6041
91.1356
93.8744
97.0103
98.5808
99.1559
99.6999
99.8631
100.083
99.8547
99.6597
98.9947
98.391
97.1989
95.181
93.5466
95.9872
98.0223
100.575
101.8
102.186
102.344
102.439
102.512
102.443
102.311
102.05
101.667
100.891
99.3753
98.3098
93.5495
95.4918
97.9081
99.2798
99.7276
99.879
99.9565
100.022
99.9559
99.8272
99.5714
99.159
98.2786
96.8688
95.8192
95.7366
97.4939
99.7114
101.06
101.515
101.597
101.636
101.664
101.633
101.536
101.36
100.973
100.14
98.875
97.9267
94.5027
96.1644
98.2982
99.6973
100.212
100.303
100.323
100.34
100.313
100.227
100.05
99.6345
98.7727
97.5594
96.653
95.5631
97.1161
99.1507
100.56
101.122
101.222
101.227
101.23
101.209
101.134
100.96
100.525
99.6613
98.5054
97.6524
94.9785
96.4575
98.4342
99.8738
100.496
100.624
100.624
100.619
100.598
100.524
100.333
99.8631
98.9794
97.8515
97.0322
95.4339
96.8393
98.7535
100.207
100.881
101.042
101.043
101.03
101.008
100.931
100.722
100.221
99.3252
98.2264
97.4414
95.2627
96.6097
98.4771
99.9488
100.674
100.87
100.875
100.856
100.831
100.749
100.517
99.9851
99.0741
97.9948
97.2366
95.3873
96.678
98.4963
99.9726
100.738
100.966
100.976
100.953
100.924
100.836
100.586
100.031
99.114
98.0567
97.3255
SCALARS v-velocity float 1
LOOKUP_TABLE default
0.0040416
0.0113923
0.0162632
0.0192711
0.017891
0.0143609
0.00758394
-0.000140803
-0.0078577
-0.0146212
-0.018123
-0.019469
-0.0164129
-0.0114886
-0.00407249
0.0225881
0.0580506
0.0877794
0.0996377
0.0956517
0.0747578
0.0410151
0.000364296
-0.0402992
-0.0740891
-0.0950515
-0.0991393
-0.0873972
-0.0578159
-0.022505
0.023144
0.0586413
0.0908838
0.102108
0.0996611
0.0770638
0.0425111
-0.00026766
-0.0430248
-0.0775651
-0.100112
-0.102506
-0.091197
-0.0588426
-0.0232194
0.0219793
0.0518984
0.0834389
0.0899581
0.0899409
0.0677831
0.0387709
0.00100407
-0.0368069
-0.0659279
-0.0882692
-0.0885407
-0.082335
-0.0512032
-0.0217326
0.00323789
0.00532237
0.0154914
0.0143015
0.019393
0.0125905
0.00852257
-0.000448203
-0.00935892
-0.0134576
-0.0201999
-0.0150726
-0.0161783
-0.00577862
-0.00344452
0.00169566
-0.010858
-0.00793284
-0.0223965
-0.0156121
-0.0182582
-0.00640797
0.00279273
0.0118264
0.0234746
0.0203406
0.0265259
0.0112798
0.0130395
-0.000868309
-0.0384467
-0.0983011
-0.132148
-0.150549
-0.133805
-0.107039
-0.0550909
4.72487e-05
0.0554168
0.106908
0.13357
0.149871
0.130997
0.0973316
0.0377617
0.0256924
-0.00663565
-0.0102614
-0.0438958
-0.0439962
-0.0446456
-0.0210422
0.00743837
0.035246
0.0587592
0.0568031
0.0554642
0.0202741
0.0137473
-0.0224939
-0.0394052
-0.047252
-0.0446235
-0.0598266
-0.0414061
-0.0373473
-0.0128249
0.00395581
0.0220767
0.0437606
0.0472823
0.0627668
0.0441886
0.0446823
0.035183
0.32322
0.371195
0.485692
0.49639
0.377623
0.292108
0.142518
0.0174268
-0.110594
-0.258421
-0.347584
-0.467951
-0.460647
-0.34925
-0.307113
1.07104
1.61147
1.85638
1.7303
1.50029
1.06409
0.569924
0.0204475
-0.521186
-1.0272
-1.46049
-1.70445
-1.83374
-1.60889
-1.10212
-0.344405
3.28005
2.39334
2.94468
1.90617
1.60651
0.715473
0.034624
-0.657356
-1.54014
-1.85445
-2.88784
-2.3651
-3.25936
0.382182
23.0718
19.9063
15.9404
12.8688
9.01532
6.10258
2.93784
0.0659099
-2.7784
-5.96783
-8.83491
-12.7328
-15.7161
-19.7342
-22.8433
25.1171
16.0563
13.1591
8.68665
6.61953
3.84173
2.04577
0.0748792
-1.90542
-3.68895
-6.47958
-8.51787
-12.9922
-15.8585
-25.287
11.4069
7.09973
6.75359
4.15973
3.72703
2.00356
1.21518
0.0684067
-1.13116
-1.87261
-3.67062
-4.04035
-6.75221
-7.0638
-11.639
-8.23345
-8.5705
-4.70023
-4.81533
-2.39348
-2.10869
-0.686935
0.125961
0.865969
2.36261
2.57684
5.08074
4.90267
8.85866
8.46399
-20.8564
-18.1292
-12.1354
-10.0828
-6.22882
-4.40779
-1.84631
0.155805
2.06921
4.74268
6.48483
10.4973
12.5102
18.7945
21.5318
-23.3061
-18.3829
-14.41
-10.8481
-7.82743
-4.95994
-2.41121
0.188252
2.60789
5.35975
8.02683
11.3355
14.65
19.1491
23.889
-2.4497
-0.433681
-2.14266
-1.2256
-1.65959
-0.840533
-0.582495
0.0443494
0.606463
0.914985
1.66282
1.27423
2.11359
0.368444
2.31073
-1.87643
-2.12795
-2.567
-2.05495
-1.89825
-1.17558
-0.647034
0.0567992
0.713888
1.27829
1.95898
2.14175
2.60403
2.08662
1.8537
-0.155334
-0.157929
-0.201885
-0.0108228
-0.150899
-0.0221646
-0.0512626
0.0110317
0.0573332
0.040083
0.162665
0.0330455
0.202388
0.112202
0.129347
-0.128135
-0.239036
-0.240756
-0.123666
-0.159552
-0.0782623
-0.05424
0.0124358
0.0700488
0.100724
0.180795
0.145974
0.236863
0.194496
0.104145
0.00706666
0.0126197
0.105078
0.183587
0.153767
0.125199
0.060045
0.00285153
-0.0569943
-0.117054
-0.140227
-0.16893
-0.110195
-0.0439402
-0.0251703
-0.00900616
-0.0181657
0.052138
0.112904
0.107815
0.0809965
0.0395804
0.00100263
-0.0383372
-0.0751977
-0.0970069
-0.104806
-0.0646429
-0.0148055
-0.00901578
-0.00496426
-0.0071516
0.0531488
0.0972831
0.100412
0.0699333
0.0350795
0.000239855
-0.0338937
-0.0638161
-0.0887923
-0.0886458
-0.0621612
-0.0175707
-0.00872164
-0.0227475
-0.0499673
-0.0185428
0.0131787
0.025496
0.0118408
0.0032723
-0.00177169
-0.00545972
-0.00900013
-0.0181211
-0.010421
0.00468099
0.0241483
0.0093592
-0.029654
-0.0681606
-0.0561393
-0.0352711
-0.0201233
-0.0227312
-0.0148513
-0.000881767
0.0148786
0.0279111
0.0293113
0.0395714
0.0456458
0.0476486
0.019001
-0.0369141
-0.0870503
-0.090344
-0.0747583
-0.057114
-0.0495118
-0.0300516
-0.00252123
0.0270224
0.0515652
0.0623579
0.0745168
0.0766565
0.065837
0.0264576
-0.0335813
-0.0791712
-0.0854999
-0.071577
-0.0549263
-0.0456333
-0.0274764
-0.00171981
0.0261886
0.0493225
0.0612131
0.0722592
0.0740265
0.0612563
0.0247901
-0.0262838
-0.0602546
-0.0595598
-0.0408739
-0.0253816
-0.0204953
-0.0141246
-0.002561
0.0112036
0.0223869
0.0292467
0.0386465
0.0456815
0.041158
0.0172174
SCALARS Mach float 1
LOOKUP_TABLE default
30.0298
30.0355
30.0454
30.0588
30.0717
30.0839
30.0913
30.0947
30.0915
30.0842
30.0722
30.0594
30.0461
30.0363
30.0306
29.5316
29.5346
29.5427
29.5522
29.5622
29.5717
29.5771
29.58
29.5772
29.5717
29.5623
29.5524
29.5428
29.5348
29.5317
30.1257
30.1244
30.1248
30.124
30.1227
30.1225
30.1207
30.1218
30.1209
30.123
30.1233
30.1249
30.1258
30.1256
30.1269
29.5091
29.5019
29.4927
29.4796
29.4676
29.4571
29.4498
29.4478
29.4499
29.4572
29.4676
29.4796
29.4927
29.5018
29.509
30.2469
30.2435
30.2355
30.225
30.2101
30.1996
30.1888
30.1883
30.1893
30.2007
30.2116
30.2269
30.2379
30.2462
30.2499
29.4318
29.4162
29.3917
29.3641
29.3387
29.3179
29.3039
29.2996
29.304
29.3181
29.339
29.3644
29.3918
29.416
29.4314
30.3222
30.3427
30.3522
30.3694
30.3648
30.3726
30.3636
30.3713
30.365
30.3752
30.3686
30.3742
30.3584
30.3502
30.3307
29.2633
29.2313
29.1985
29.1842
29.1735
29.1754
29.1719
29.1776
29.1726
29.1771
29.1754
29.187
29.2002
29.2317
29.2617
30.1608
30.3373
30.4284
30.5865
30.6489
30.7503
30.7652
30.8042
30.7681
30.7558
30.6578
30.5971
30.4431
30.3569
30.1867
28.7868
28.7298
28.8025
28.9374
29.0316
29.1721
29.2264
29.2842
29.2297
29.1798
29.0397
28.9513
28.814
28.7382
28.7774
28.9122
30.0398
30.2676
31.0257
31.3466
31.6997
31.8217
31.9093
31.8269
31.7093
31.3652
31.0462
30.2945
30.0761
28.9955
24.3281
27.1778
28.2267
29.3317
29.9447
30.6599
30.9173
31.1141
30.9267
30.6828
29.9692
29.3742
28.2721
27.2662
24.2863
26.0247
27.9963
32.0652
33.2621
34.6288
34.8119
35.4166
35.2325
35.4246
34.8281
34.6553
33.3114
32.1236
28.016
26.1462
48.7245
44.9085
45.1079
43.7207
43.8721
42.6924
42.9654
42.3137
42.964
42.6705
43.8721
43.6594
45.0566
44.9295
49.657
55.8532
52.073
49.6914
47.5523
46.761
45.3746
45.2446
44.6441
45.2568
45.3871
46.7961
47.5491
49.7479
52.443
56.8531
57.6874
54.4929
51.7508
49.7539
48.7892
47.621
47.3486
46.8938
47.3738
47.6655
48.8618
49.835
51.9521
55.0334
58.6855
43.5914
44.9895
42.9274
42.9495
42.04
42.0341
41.487
41.6286
41.5054
42.044
42.0837
42.9393
43.0562
45.461
45.3286
25.8437
32.4442
32.662
34.7179
34.7333
36.0086
35.7108
36.3167
35.692
35.9741
34.6493
34.5617
32.506
32.9045
27.5129
18.9503
24.8536
27.6961
29.7612
30.5189
31.6241
31.7351
32.1485
31.7084
31.5885
30.3851
29.5972
27.5669
25.4413
20.1292
28.0169
29.6017
31.6023
32.232
32.5193
32.8375
32.893
33.0424
32.8914
32.8284
32.4473
32.1291
31.6894
30.3778
29.5232
25.1211
26.6647
28.4867
29.4245
29.7714
30.1023
30.2023
30.3366
30.1972
30.0778
29.6738
29.3101
28.5984
27.4182
26.4788
27.9374
29.1416
30.6879
31.4434
31.6833
31.7814
31.8406
31.8862
31.8434
31.7608
31.5984
31.3609
30.8825
29.9589
29.318
26.4937
27.6114
29.0342
29.8576
30.128
30.2195
30.2661
30.306
30.2658
30.1878
30.0328
29.7842
29.2562
28.4204
27.8061
27.784
28.8187
30.1514
30.9757
31.2554
31.3047
31.328
31.3451
31.3262
31.2668
31.1591
30.9221
30.4136
29.6483
29.0811
27.0475
28.0118
29.2749
30.1174
30.4293
30.4831
30.4944
30.5047
30.4882
30.4366
30.33
30.079
29.5606
28.8375
28.3031
27.6792
28.5906
29.8071
30.664
31.0079
31.0676
31.0697
31.0712
31.0589
31.0132
30.9077
30.642
30.1176
29.4218
28.9135
27.3244
28.1863
29.3591
30.2277
30.6059
30.6832
30.6826
30.6789
30.6665
30.6216
30.5061
30.2211
29.688
29.014
28.5292
27.6024
28.4257
29.5665
30.4477
30.86
30.9577
30.9577
30.9496
30.9361
30.8892
30.7613
30.4559
29.9128
29.2531
28.7863
27.4844
28.2712
29.3806
30.2698
30.7127
30.8321
30.8348
30.8233
30.8077
30.7575
30.6162
30.292
29.7411
29.0949
28.6451
27.5821
28.3377
29.4196
30.313
30.7816
30.9212
30.9276
30.9132
30.895
30.8411
30.6879
30.3486
29.793
29.1588
28.7242
