# vtk DataFile Version 3.0
Structured Grid Example
ASCII
DATASET STRUCTURED_GRID
DIMENSIONS 15 30 1
POINTS 450 FLOAT
0.0833327 0.0333334 0
0.0833313 0.1 0
0.0833301 0.166667 0
0.083329 0.233333 0
0.0833281 0.3 0
0.0833274 0.366667 0
0.083327 0.433333 0
0.0833268 0.5 0
0.083327 0.566667 0
0.0833274 0.633333 0
0.0833281 0.7 0
0.083329 0.766667 0
0.0833301 0.833333 0
0.0833313 0.9 0
0.0833327 0.966667 0
0.249998 0.0333334 0
0.249993 0.1 0
0.249989 0.166667 0
0.249986 0.233334 0
0.249983 0.3 0
0.24998 0.366667 0
0.249979 0.433333 0
0.249979 0.5 0
0.249979 0.566667 0
0.24998 0.633333 0
0.249983 0.7 0
0.249986 0.766666 0
0.249989 0.833333 0
0.249993 0.9 0
0.249998 0.966667 0
0.416662 0.0333336 0
0.416654 0.100001 0
0.416646 0.166668 0
0.416639 0.233334 0
0.416633 0.300001 0
0.416628 0.366667 0
0.416626 0.433334 0
0.416625 0.5 0
0.416626 0.566666 0
0.416628 0.633333 0
0.416633 0.699999 0
0.416639 0.766666 0
0.416646 0.833332 0
0.416654 0.899999 0
0.416662 0.966666 0
0.583326 0.033334 0
0.58331 0.100002 0
0.583296 0.166669 0
0.583284 0.233336 0
0.583273 0.300003 0
0.583266 0.366669 0
0.583261 0.433335 0
0.583259 0.5 0
0.583261 0.566665 0
0.583266 0.633331 0
0.583273 0.699997 0
0.583284 0.766664 0
0.583296 0.833331 0
0.58331 0.899998 0
0.583326 0.966666 0
0.749987 0.0333351 0
0.749961 0.100005 0
0.749937 0.166674 0
0.749915 0.233342 0
0.749898 0.300008 0
0.749884 0.366673 0
0.749876 0.433337 0
0.749874 0.5 0
0.749876 0.566663 0
0.749884 0.633327 0
0.749898 0.699992 0
0.749915 0.766658 0
0.749937 0.833326 0
0.749961 0.899995 0
0.749987 0.966665 0
0.916644 0.033338 0
0.916601 0.100013 0
0.91656 0.166686 0
0.916524 0.233356 0
0.916494 0.300021 0
0.916472 0.366683 0
0.916458 0.433342 0
0.916454 0.5 0
0.916458 0.566658 0
0.916472 0.633317 0
0.916494 0.699979 0
0.916524 0.766644 0
0.91656 0.833314 0
0.916601 0.899987 0
0.916644 0.966662 0
1.0833 0.0333461 0
1.08322 0.100036 0
1.08315 0.166719 0
1.08309 0.233394 0
1.08304 0.300058 0
1.08301 0.366712 0
1.08298 0.433358 0
1.08298 0.5 0
1.08298 0.566642 0
1.08301 0.633288 0
1.08304 0.699942 0
1.08309 0.766606 0
1.08315 0.833281 0
1.08322 0.899964 0
1.0833 0.966654 0
1.24994 0.0333682 0
1.24981 0.100098 0
1.2497 0.16681 0
1.24959 0.233497 0
1.24951 0.300156 0
1.24945 0.366788 0
1.24942 0.433399 0
1.2494 0.5 0
1.24942 0.566601 0
1.24945 0.633212 0
1.24951 0.699844 0
1.24959 0.766503 0
1.2497 0.83319 0
1.24981 0.899902 0
1.24994 0.966632 0
1.41656 0.0334298 0
1.41634 0.10027 0
1.41615 0.16706 0
1.41598 0.233778 0
1.41585 0.300419 0
1.41575 0.36699 0
1.41569 0.433509 0
1.41567 0.5 0
1.41569 0.566491 0
1.41575 0.63301 0
1.41585 0.699581 0
1.41598 0.766222 0
1.41615 0.83294 0
1.41634 0.89973 0
1.41656 0.96657 0
1.58313 0.0336075 0
1.58275 0.10076 0
1.58242 0.167751 0
1.58215 0.234537 0
1.58195 0.301115 0
1.58181 0.367517 0
1.58173 0.433791 0
1.58171 0.5 0
1.58173 0.566209 0
1.58181 0.632483 0
1.58195 0.698885 0
1.58215 0.765463 0
1.58242 0.832249 0
1.58275 0.89924 0
1.58313 0.966392 0
1.74959 0.0341677 0
1.74885 0.102235 0
1.74829 0.169714 0
1.74791 0.236575 0
1.74766 0.302905 0
1.74751 0.368829 0
1.74744 0.434482 0
1.74741 0.5 0
1.74744 0.565518 0
1.74751 0.631171 0
1.74766 0.697095 0
1.74791 0.763425 0
1.74829 0.830286 0
1.74885 0.897765 0
1.74959 0.965832 0
1.91555 0.0363295 0
1.91388 0.107253 0
1.91312 0.175401 0
1.91283 0.241837 0
1.91276 0.307169 0
1.91277 0.371793 0
1.9128 0.435995 0
1.91281 0.5 0
1.9128 0.564005 0
1.91277 0.628207 0
1.91276 0.692831 0
1.91283 0.758163 0
1.91312 0.824599 0
1.91388 0.892747 0
1.91555 0.963671 0
2.07838 0.0591504 0
2.07417 0.125973 0
2.07554 0.190391 0
2.07663 0.253364 0
2.07743 0.315525 0
2.07798 0.377223 0
2.07829 0.438667 0
2.0784 0.5 0
2.07829 0.561333 0
2.07798 0.622777 0
2.07743 0.684475 0
2.07663 0.746636 0
2.07554 0.809609 0
2.07417 0.874027 0
2.07838 0.94085 0
2.24384 0.096456 0
2.23911 0.153168 0
2.24152 0.210396 0
2.24318 0.267878 0
2.24431 0.325632 0
2.24503 0.383617 0
2.24544 0.441767 0
2.24557 0.5 0
2.24544 0.558233 0
2.24503 0.616383 0
2.24431 0.674368 0
2.24318 0.732122 0
2.24152 0.789604 0
2.23911 0.846832 0
2.24384 0.903544 0
2.41462 0.118677 0
2.41292 0.170231 0
2.41356 0.223198 0
2.41406 0.277268 0
2.41444 0.332207 0
2.4147 0.387788 0
2.41485 0.44379 0
2.4149 0.5 0
2.41485 0.55621 0
2.4147 0.612212 0
2.41444 0.667793 0
2.41406 0.722732 0
2.41356 0.776802 0
2.41292 0.829769 0
2.41462 0.881323 0
2.58538 0.118677 0
2.58708 0.170231 0
2.58644 0.223198 0
2.58594 0.277268 0
2.58556 0.332207 0
2.5853 0.387788 0
2.58515 0.44379 0
2.5851 0.5 0
2.58515 0.55621 0
2.5853 0.612212 0
2.58556 0.667793 0
2.58594 0.722732 0
2.58644 0.776802 0
2.58708 0.829769 0
2.58538 0.881323 0
2.75616 0.096456 0
2.76089 0.153168 0
2.75848 0.210396 0
2.75682 0.267878 0
2.75569 0.325632 0
2.75497 0.383617 0
2.75456 0.441767 0
2.75443 0.5 0
2.75456 0.558233 0
2.75497 0.616383 0
2.75569 0.674368 0
2.75682 0.732122 0
2.75848 0.789604 0
2.76089 0.846832 0
2.75616 0.903544 0
2.92162 0.0591504 0
2.92583 0.125973 0
2.92446 0.190391 0
2.92337 0.253364 0
2.92257 0.315525 0
2.92202 0.377223 0
2.92171 0.438667 0
2.9216 0.5 0
2.92171 0.561333 0
2.92202 0.622777 0
2.92257 0.684475 0
2.92337 0.746636 0
2.92446 0.809609 0
2.92583 0.874027 0
2.92162 0.94085 0
3.08445 0.0363295 0
3.08612 0.107253 0
3.08688 0.175401 0
3.08717 0.241837 0
3.08724 0.307169 0
3.08723 0.371793 0
3.0872 0.435995 0
3.08719 0.5 0
3.0872 0.564005 0
3.08723 0.628207 0
3.08724 0.692831 0
3.08717 0.758163 0
3.08688 0.824599 0
3.08612 0.892747 0
3.08445 0.963671 0
3.25041 0.0341677 0
3.25115 0.102235 0
3.25171 0.169714 0
3.25209 0.236575 0
3.25234 0.302905 0
3.25249 0.368829 0
3.25256 0.434482 0
3.25259 0.5 0
3.25256 0.565518 0
3.25249 0.631171 0
3.25234 0.697095 0
3.25209 0.763425 0
3.25171 0.830286 0
3.25115 0.897765 0
3.25041 0.965832 0
3.41687 0.0336075 0
3.41725 0.10076 0
3.41758 0.167751 0
3.41785 0.234537 0
3.41805 0.301115 0
3.41819 0.367517 0
3.41827 0.433791 0
3.41829 0.5 0
3.41827 0.566209 0
3.41819 0.632483 0
3.41805 0.698885 0
3.41785 0.765463 0
3.41758 0.832249 0
3.41725 0.89924 0
3.41687 0.966392 0
3.58344 0.0334298 0
3.58366 0.10027 0
3.58385 0.16706 0
3.58402 0.233778 0
3.58415 0.300419 0
3.58425 0.36699 0
3.58431 0.433509 0
3.58433 0.5 0
3.58431 0.566491 0
3.58425 0.63301 0
3.58415 0.699581 0
3.58402 0.766222 0
3.58385 0.83294 0
3.58366 0.89973 0
3.58344 0.96657 0
3.75006 0.0333682 0
3.75019 0.100098 0
3.7503 0.16681 0
3.75041 0.233497 0
3.75049 0.300156 0
3.75055 0.366788 0
3.75058 0.433399 0
3.7506 0.5 0
3.75058 0.566601 0
3.75055 0.633212 0
3.75049 0.699844 0
3.75041 0.766503 0
3.7503 0.83319 0
3.75019 0.899902 0
3.75006 0.966632 0
3.9167 0.0333461 0
3.91678 0.100036 0
3.91685 0.166719 0
3.91691 0.233394 0
3.91696 0.300058 0
3.91699 0.366712 0
3.91702 0.433358 0
3.91702 0.5 0
3.91702 0.566642 0
3.91699 0.633288 0
3.91696 0.699942 0
3.91691 0.766606 0
3.91685 0.833281 0
3.91678 0.899964 0
3.9167 0.966654 0
4.08336 0.033338 0
4.0834 0.100013 0
4.08344 0.166686 0
4.08348 0.233356 0
4.08351 0.300021 0
4.08353 0.366683 0
4.08354 0.433342 0
4.08355 0.5 0
4.08354 0.566658 0
4.08353 0.633317 0
4.08351 0.699979 0
4.08348 0.766644 0
4.08344 0.833314 0
4.0834 0.899987 0
4.08336 0.966662 0
4.25001 0.0333351 0
4.25004 0.100005 0
4.25006 0.166674 0
4.25008 0.233342 0
4.2501 0.300008 0
4.25012 0.366673 0
4.25012 0.433337 0
4.25013 0.5 0
4.25012 0.566663 0
4.25012 0.633327 0
4.2501 0.699992 0
4.25008 0.766658 0
4.25006 0.833326 0
4.25004 0.899995 0
4.25001 0.966665 0
4.41667 0.033334 0
4.41669 0.100002 0
4.4167 0.166669 0
4.41672 0.233336 0
4.41673 0.300003 0
4.41673 0.366669 0
4.41674 0.433335 0
4.41674 0.5 0
4.41674 0.566665 0
4.41673 0.633331 0
4.41673 0.699997 0
4.41672 0.766664 0
4.4167 0.833331 0
4.41669 0.899998 0
4.41667 0.966666 0
4.58334 0.0333336 0
4.58335 0.100001 0
4.58335 0.166668 0
4.58336 0.233334 0
4.58337 0.300001 0
4.58337 0.366667 0
4.58337 0.433334 0
4.58338 0.5 0
4.58337 0.566666 0
4.58337 0.633333 0
4.58337 0.699999 0
4.58336 0.766666 0
4.58335 0.833332 0
4.58335 0.899999 0
4.58334 0.966666 0
4.75 0.0333334 0
4.75001 0.1 0
4.75001 0.166667 0
4.75001 0.233334 0
4.75002 0.3 0
4.75002 0.366667 0
4.75002 0.433333 0
4.75002 0.5 0
4.75002 0.566667 0
4.75002 0.633333 0
4.75002 0.7 0
4.75001 0.766666 0
4.75001 0.833333 0
4.75001 0.9 0
4.75 0.966667 0
4.91667 0.0333334 0
4.91667 0.1 0
4.91667 0.166667 0
4.91667 0.233333 0
4.91667 0.3 0
4.91667 0.366667 0
4.91667 0.433333 0
4.91667 0.5 0
4.91667 0.566667 0
4.91667 0.633333 0
4.91667 0.7 0
4.91667 0.766667 0
4.91667 0.833333 0
4.91667 0.9 0
4.91667 0.966667 0
POINT_DATA 450
SCALARS pressure float 1
LOOKUP_TABLE default
94472.7
94472.7
94472.7
94472.8
94472.9
94472.9
94473
94473
94473
94472.9
94472.9
94472.8
94472.7
94472.7
94472.7
94202.6
94203.2
94204.4
94205.8
94207.3
94208.5
94209.6
94209.7
94209.5
94208.5
94207.3
94205.7
94204.2
94203.1
94202.5
94529.6
94530.6
94532.2
94534.5
94536.7
94538.8
94540
94540.6
94540
94538.7
94536.7
94534.4
94532.2
94530.5
94529.6
94131.6
94132.3
94134.1
94135.8
94138.4
94139.8
94141.5
94141.4
94141.5
94139.6
94138.2
94135.6
94133.8
94132
94131.3
94609.1
94609.6
94610.9
94612.3
94614
94615.3
94616.3
94616.6
94616.2
94615.2
94613.9
94612.2
94610.7
94609.4
94608.9
94049.5
94048.3
94049.2
94047
94048.4
94046
94047.8
94045.5
94047.6
94045.7
94047.9
94046.4
94048.5
94047.5
94048.7
94720.3
94718.5
94717.4
94713.9
94712.4
94709.2
94708.7
94707.1
94708.6
94709
94712.1
94713.5
94717
94718
94719.8
93955.4
93946.4
93945
93928.4
93927.4
93911.4
93914.8
93904.4
93914.4
93910.6
93926.2
93926.8
93943.1
93944.4
93953.3
94888
94874.8
94867.5
94846.6
94838.4
94820.4
94818.8
94809.8
94818.5
94819.7
94837.7
94845.4
94866.5
94873.3
94886.7
93915.4
93847.8
93839.6
93755.6
93748
93683.8
93691.8
93656.8
93690.7
93681.9
93744.7
93751.8
93834.7
93842.5
93909.8
95288.7
95145.8
95105.2
94991.2
94955.9
94882.3
94876
94843.3
94875.5
94880.1
94954.6
94987.1
95103.2
95140.7
95285.9
94579
93817.2
93773.2
93353.1
93300
93099
93090.9
93018.8
93088.5
93095.5
93292.6
93345
93760.4
93802.8
94560.3
96104.5
95462.1
95052
94756
94613.2
94478.8
94440.6
94400.4
94440
94473
94612
94742.7
95051.6
95437.2
96105.1
89135
90212.7
89827.9
90518.9
90314.4
90746.7
90553.9
90827.6
90553.6
90751.4
90313.6
90531.1
89826.8
90239.3
89126.8
90209.2
91518.9
91409.6
92231.9
92070.5
92592.2
92363.5
92702.4
92360
92595.2
92059.7
92239
91390.5
91532.4
90173.4
87372
88849.5
88627.8
89612.5
89372.4
90029.5
89716.7
90161
89709.9
90026
89350.5
89602.4
88587.5
88824.5
87297.5
91769.3
92529
92296.7
92848.5
92625.5
93035.5
92778.9
93096.8
92773.2
93038.7
92607
92854
92260.4
92532.4
91705.8
93248.7
92728.9
92595.8
92412
92285.8
92285.1
92165.2
92255.5
92162.4
92301.9
92277.2
92450
92578.1
92801
93243.6
96873.6
95839.7
95655.2
95164.6
95019
94814.1
94744.5
94708.9
94751.1
94826.8
95040.9
95190.4
95698.9
95878.1
96973.5
93026.9
93098.8
93069.2
93092.6
93056.2
93073.2
93037.2
93064.5
93036.2
93074.7
93052.9
93093.9
93063
93096.4
93018.2
95135.5
95051.3
95006.8
94907.5
94865.4
94800.2
94783.8
94763
94786.2
94804.7
94872.4
94915.5
95017.4
95061.4
95148.5
93529
93531
93525.8
93524.3
93516.3
93515.5
93508.3
93511.7
93508.2
93515.7
93515.8
93524.4
93525.1
93530.9
93528.8
94625.6
94618.1
94609.2
94593.3
94584.2
94570.5
94567.4
94562
94568
94571.7
94585.8
94595.2
94611.3
94620.1
94627.6
93781.2
93782.1
93782.2
93782.9
93783.1
93783.5
93783.8
93783.8
93783.8
93783.7
93783.4
93783.3
93782.6
93782.8
93782
94401.2
94402
94402.8
94403.7
94405.6
94406.1
94408
94407.4
94408.1
94406.4
94405.9
94404
94403
94402.3
94401.3
93912.4
93914.8
93918.2
93923
93927.8
93931.8
93934.9
93935.7
93935.1
93932.1
93928.1
93923.4
93918.7
93915.5
93913.1
94291.2
94293.4
94296.8
94301.7
94306.7
94311
94314.2
94315
94314.2
94311
94306.7
94301.7
94296.8
94293.3
94291
93983.8
93985.8
93989.2
93993.8
93998.4
94002.5
94005.3
94006.3
94005.4
94002.7
93998.7
93994.2
93989.6
93986.3
93984.3
94248
94249.2
94251.5
94254.5
94257.5
94260.2
94262.1
94262.7
94262.1
94260.2
94257.5
94254.4
94251.4
94249.1
94247.9
94021.8
94022.4
94023.6
94024.9
94026.2
94027.4
94028.2
94028.5
94028.3
94027.6
94026.5
94025.3
94024.1
94023
94022.5
SCALARS density float 1
LOOKUP_TABLE default
1.21458
1.21459
1.21459
1.21459
1.21459
1.21459
1.21459
1.21459
1.21459
1.21459
1.21459
1.21459
1.21459
1.21459
1.21459
1.21209
1.2121
1.21211
1.21212
1.21214
1.21215
1.21216
1.21216
1.21216
1.21215
1.21214
1.21212
1.21211
1.2121
1.21209
1.21509
1.2151
1.21512
1.21514
1.21516
1.21518
1.21519
1.2152
1.21519
1.21518
1.21516
1.21514
1.21512
1.2151
1.21509
1.21144
1.21145
1.21147
1.21148
1.21151
1.21152
1.21154
1.21154
1.21154
1.21152
1.21151
1.21148
1.21146
1.21145
1.21144
1.21582
1.21583
1.21584
1.21586
1.21587
1.21588
1.21589
1.2159
1.21589
1.21588
1.21587
1.21585
1.21584
1.21583
1.21582
1.2107
1.21069
1.2107
1.21068
1.2107
1.21067
1.21069
1.21067
1.21069
1.21067
1.21069
1.21068
1.21069
1.21068
1.21069
1.21683
1.21681
1.2168
1.21677
1.21676
1.21673
1.21673
1.21671
1.21673
1.21673
1.21676
1.21677
1.2168
1.21681
1.21683
1.20989
1.20981
1.2098
1.20965
1.20964
1.2095
1.20953
1.20944
1.20953
1.20949
1.20963
1.20964
1.20979
1.2098
1.20987
1.21824
1.21812
1.21808
1.2179
1.21783
1.21767
1.21765
1.21757
1.21765
1.21766
1.21783
1.21789
1.21807
1.21811
1.21823
1.20988
1.20926
1.20913
1.20833
1.20824
1.20764
1.20771
1.20738
1.2077
1.20762
1.20821
1.20829
1.20909
1.20921
1.20983
1.22094
1.21985
1.21966
1.21877
1.21854
1.21791
1.21788
1.21759
1.21787
1.21789
1.21853
1.21874
1.21965
1.21981
1.22093
1.21875
1.21077
1.20986
1.20555
1.20485
1.20281
1.20268
1.20196
1.20265
1.20277
1.20477
1.20546
1.20973
1.21064
1.21857
1.22571
1.22091
1.21787
1.21579
1.21474
1.21372
1.21344
1.21312
1.21344
1.21367
1.21474
1.21569
1.21789
1.22064
1.2257
1.16443
1.17507
1.17118
1.17779
1.17588
1.18
1.17819
1.18078
1.17819
1.18005
1.17588
1.1779
1.17115
1.17545
1.16499
1.17546
1.18818
1.18667
1.19424
1.19259
1.19743
1.19525
1.19841
1.19522
1.19746
1.19249
1.1943
1.1865
1.18852
1.17567
1.14719
1.16161
1.15949
1.16875
1.16651
1.17271
1.16983
1.17398
1.16977
1.17268
1.1663
1.16863
1.15914
1.16162
1.14701
1.18886
1.19647
1.1946
1.19968
1.19772
1.20147
1.19918
1.20206
1.19913
1.2015
1.19755
1.19971
1.19429
1.19675
1.18921
1.20188
1.19789
1.19697
1.19508
1.19391
1.19384
1.19281
1.19358
1.19279
1.194
1.19383
1.19538
1.19683
1.199
1.20316
1.23301
1.22545
1.22466
1.22043
1.21917
1.21737
1.2168
1.21648
1.21686
1.21748
1.21935
1.22059
1.22509
1.2263
1.23516
1.19896
1.20046
1.20093
1.20137
1.20106
1.20123
1.20095
1.20121
1.20095
1.20124
1.20099
1.20131
1.20095
1.20097
1.19997
1.21842
1.21836
1.21869
1.21808
1.21773
1.21716
1.21705
1.21687
1.21708
1.21719
1.21774
1.21808
1.21889
1.21902
1.2196
1.20382
1.20444
1.20507
1.20538
1.20536
1.20536
1.20532
1.20537
1.20532
1.20534
1.20529
1.20531
1.2052
1.20502
1.20482
1.21394
1.21442
1.21499
1.2152
1.21519
1.21507
1.21506
1.21503
1.21507
1.21506
1.21514
1.21516
1.21517
1.21503
1.21493
1.20625
1.20676
1.20738
1.20775
1.20785
1.20786
1.20788
1.20789
1.20788
1.20784
1.20778
1.20771
1.20756
1.20736
1.2072
1.21195
1.21243
1.21303
1.21342
1.21356
1.21357
1.21359
1.2136
1.21359
1.21354
1.21349
1.21339
1.21324
1.21303
1.21288
1.20755
1.20801
1.20861
1.20904
1.20923
1.20928
1.20931
1.20932
1.2093
1.20924
1.20916
1.20903
1.20883
1.20861
1.20845
1.21094
1.21137
1.21195
1.21238
1.21258
1.21264
1.21267
1.21267
1.21266
1.2126
1.21251
1.21237
1.21218
1.21197
1.21182
1.20841
1.20882
1.20939
1.20984
1.21005
1.21012
1.21014
1.21014
1.21012
1.21007
1.20998
1.20984
1.20965
1.20943
1.20929
1.2102
1.21058
1.21111
1.21153
1.21174
1.2118
1.21181
1.21181
1.21179
1.21174
1.21167
1.21154
1.21137
1.21118
1.21105
1.20963
1.20998
1.21049
1.2109
1.2111
1.21115
1.21115
1.21114
1.21113
1.21109
1.21103
1.21092
1.21076
1.21058
1.21046
SCALARS u-velocity float 1
LOOKUP_TABLE default
99.5956
99.5964
99.5978
99.5997
99.6011
99.6028
99.6033
99.6042
99.6036
99.6033
99.6018
99.6007
99.5989
99.5977
99.5969
98.7416
98.7405
98.7393
98.7376
98.7361
98.7349
98.734
98.7338
98.7341
98.7351
98.7365
98.7381
98.7398
98.7411
98.7421
99.7054
99.7063
99.7066
99.7077
99.707
99.7078
99.7066
99.7077
99.707
99.7087
99.7083
99.7094
99.7086
99.7085
99.7077
98.6153
98.6121
98.6071
98.6018
98.5973
98.5938
98.5918
98.591
98.5919
98.5941
98.5976
98.6022
98.6075
98.6124
98.6156
99.8463
99.8543
99.8617
99.8739
99.878
99.8871
99.8867
99.892
99.8877
99.889
99.8809
99.8775
99.8662
99.8594
99.8518
98.4309
98.4201
98.4058
98.3956
98.389
98.3869
98.3849
98.3858
98.3852
98.3876
98.3898
98.3965
98.4064
98.4203
98.4306
99.968
100.015
100.056
100.118
100.144
100.188
100.193
100.214
100.195
100.193
100.151
100.126
100.067
100.028
99.9826
98.1742
98.1275
98.0908
98.0881
98.093
98.1166
98.1234
98.1387
98.1246
98.1195
98.0963
98.0929
98.0938
98.1284
98.1718
99.7789
100.07
100.228
100.493
100.603
100.776
100.804
100.871
100.809
100.785
100.618
100.511
100.252
100.103
99.8219
97.4392
97.3313
97.4495
97.6619
97.8123
98.0367
98.1228
98.2164
98.1284
98.0497
97.8258
97.6853
97.4686
97.3452
97.4228
97.8046
99.6605
100.011
101.225
101.725
102.276
102.463
102.599
102.472
102.292
101.756
101.258
100.056
99.7204
97.9444
89.6045
94.6028
96.4228
98.2278
99.2479
100.396
100.813
101.125
100.829
100.435
99.2891
98.3004
96.5003
94.7562
89.5259
90.0028
94.2062
101.736
104.028
106.532
106.985
108.029
107.778
108.045
107.017
106.588
104.121
101.865
94.2754
90.2836
123.815
120.301
120.884
119.446
119.757
118.281
118.681
117.816
118.681
118.256
119.764
119.375
120.832
120.355
124.988
134.833
130.579
127.567
124.975
123.929
122.164
121.979
121.203
121.995
122.183
123.976
124.975
127.637
131.041
136.003
137.002
133.262
130.024
127.581
126.378
124.923
124.548
123.993
124.579
124.976
126.466
127.674
130.264
133.895
138.149
117.891
120.318
118.201
118.468
117.436
117.544
116.815
117.058
116.837
117.545
117.482
118.419
118.337
120.854
120.14
89.3298
101.721
102.68
106.319
106.582
108.688
108.303
109.251
108.269
108.618
106.436
106.029
102.393
102.319
92.1824
79.2851
90.7243
95.6983
99.155
100.369
102.144
102.306
102.965
102.264
102.087
100.151
98.884
95.4777
91.7839
81.7043
96.1262
98.7838
102.024
103.026
103.464
103.964
104.042
104.277
104.039
103.948
103.349
102.86
102.161
100.06
98.6531
91.1672
93.9038
97.0324
98.5943
99.1604
99.6954
99.8539
100.07
99.8455
99.655
98.9989
98.4041
97.2206
95.21
93.5778
95.9879
98.026
100.579
101.806
102.194
102.353
102.449
102.522
102.454
102.32
102.057
101.673
100.894
99.3784
98.3101
93.5144
95.4645
97.8901
99.2752
99.7359
99.8988
99.9848
100.052
99.9842
99.8469
99.5796
99.1539
98.26
96.8408
95.7837
95.6744
97.4429
99.6766
101.047
101.523
101.625
101.677
101.71
101.675
101.564
101.368
100.96
100.105
98.8233
97.8641
94.4333
96.1066
98.259
99.6825
100.221
100.334
100.369
100.392
100.359
100.259
100.059
99.6194
98.7328
97.5011
96.5833
95.5074
97.0701
99.1215
100.553
101.136
101.255
101.273
101.281
101.255
101.168
100.974
100.517
99.6317
98.459
97.5966
94.9513
96.4356
98.4234
99.8758
100.511
100.651
100.659
100.657
100.633
100.551
100.348
99.865
98.9683
97.8295
97.0052
95.4368
96.8426
98.7603
100.217
100.893
101.056
101.058
101.047
101.024
100.946
100.734
100.23
99.3319
98.2298
97.4447
95.2917
96.6344
98.4974
99.961
100.679
100.867
100.868
100.848
100.824
100.747
100.522
99.9974
99.0945
98.0198
97.2659
95.4173
96.7017
98.5107
99.9733
100.726
100.941
100.944
100.918
100.891
100.812
100.574
100.032
99.1287
98.0808
97.356
SCALARS v-velocity float 1
LOOKUP_TABLE default
0.00022883
0.000811756
0.00113735
0.00145864
0.00133335
0.00107198
0.000452426
-0.000241855
-0.00092474
-0.00151678
-0.00173008
-0.00179127
-0.00138988
-0.000968952
-0.000283539
0.00123734
0.00253868
0.00430331
0.00438436
0.00452617
0.0033439
0.00209519
0.000345862
-0.00141966
-0.00270769
-0.00395853
-0.00390744
-0.00394113
-0.0023117
-0.00115975
-0.00168149
-0.00435071
-0.00608136
-0.00684044
-0.00616943
-0.00487401
-0.00264323
-0.000196426
0.0022627
0.00450522
0.00583157
0.00654404
0.00584044
0.00419846
0.00162165
0.000947165
-0.000191247
0.000989042
-0.000877053
-3.79817e-05
-0.000736769
0.000447288
0.00118386
0.00185952
0.00292188
0.00199505
0.00253844
0.000293046
0.0010002
-0.000661328
-0.00632144
-0.0160254
-0.0223244
-0.0241321
-0.0217123
-0.0166263
-0.00878526
-9.25529e-05
0.00863461
0.0164092
0.0214731
0.0238372
0.0219902
0.0157881
0.00619315
0.0098719
0.0142513
0.0233605
0.0189869
0.0190277
0.0125984
0.00880644
0.00328637
-0.00243548
-0.00648612
-0.0135199
-0.0142126
-0.0195375
-0.0117791
-0.00893922
-0.0109913
-0.0237119
-0.0258271
-0.023863
-0.0171882
-0.0119852
-0.00474524
0.00069723
0.00633254
0.013036
0.0179893
0.0240421
0.0253151
0.0231317
0.0104489
0.0689428
0.10806
0.157761
0.15217
0.139954
0.102619
0.0581174
0.00821726
-0.0424052
-0.0870972
-0.12592
-0.139598
-0.147005
-0.100503
-0.06558
0.0121395
0.087151
0.155162
0.170156
0.176436
0.135117
0.0806299
0.00479222
-0.069747
-0.127182
-0.169218
-0.166113
-0.154768
-0.0892171
-0.0161727
0.375554
0.505822
0.687969
0.726852
0.59734
0.464552
0.236545
0.0183136
-0.202891
-0.429261
-0.565893
-0.697274
-0.662076
-0.483379
-0.359269
1.11454
1.72084
2.02144
1.91538
1.67697
1.20128
0.645002
0.021268
-0.594653
-1.16289
-1.63584
-1.88842
-1.99798
-1.71776
-1.14545
-0.313325
3.36111
2.51163
3.07463
2.02923
1.70027
0.767137
0.0354888
-0.707302
-1.63232
-1.9761
-3.01667
-2.48257
-3.34
0.35115
23.1032
19.956
15.9998
12.9286
9.06841
6.14182
2.95915
0.0666663
-2.7982
-6.00563
-8.88671
-12.7914
-15.7746
-19.7831
-22.8744
25.1291
16.0676
13.1715
8.69502
6.62821
3.84635
2.04915
0.0753664
-1.90782
-3.69261
-6.48735
-8.52535
-13.0038
-15.8692
-25.2985
11.4083
7.10038
6.75511
4.15972
3.72811
2.00341
1.21571
0.068671
-1.13115
-1.87194
-3.67119
-4.03986
-6.75332
-7.06412
-11.6402
-8.23398
-8.57107
-4.70053
-4.81659
-2.39369
-2.10961
-0.68691
0.126164
0.866314
2.36395
2.57741
5.08238
4.90326
8.85946
8.46468
-20.8623
-18.1362
-12.1438
-10.0914
-6.23586
-4.41341
-1.84896
0.155957
2.07212
4.74861
6.49212
10.5062
12.5189
18.8017
21.5378
-23.3231
-18.4131
-14.4432
-10.8845
-7.85704
-4.98359
-2.42283
0.188371
2.61965
5.38366
8.0566
11.3721
14.6833
19.1795
23.906
-2.47071
-0.48827
-2.21817
-1.31186
-1.73783
-0.902313
-0.614994
0.0443869
0.638984
0.976824
1.74106
1.36049
2.18905
0.422965
2.33167
-1.90853
-2.21193
-2.69033
-2.19585
-2.03044
-1.2794
-0.702935
0.0566469
0.769476
1.38184
2.09096
2.2825
2.72734
2.17071
1.88597
-0.194005
-0.258618
-0.353199
-0.183861
-0.315801
-0.151591
-0.121689
0.0107387
0.127175
0.168992
0.327117
0.205748
0.353592
0.212991
0.168159
-0.16953
-0.345745
-0.403271
-0.308345
-0.337279
-0.217065
-0.130368
0.0119885
0.145309
0.238742
0.357847
0.330159
0.39919
0.301297
0.14565
-0.0298148
-0.0811674
-0.0398844
0.0201939
-0.00526426
0.00178748
-0.00828686
0.00231442
0.010295
0.00540504
0.0179805
-0.00614743
0.0344829
0.0498435
0.0117676
-0.0353139
-0.0839648
-0.0517608
-0.00244635
-0.00634794
-0.00653775
-0.00963034
0.000419783
0.00973717
0.0112901
0.0162449
0.00985115
0.0388578
0.0508522
0.0172729
-0.0174208
-0.0369848
0.00319795
0.0442617
0.0454809
0.0292973
0.0112201
-0.000339036
-0.0111686
-0.024235
-0.0347888
-0.0363627
-0.0127225
0.0119644
0.00363214
-0.0213296
-0.0440336
-0.014105
0.0223869
0.0303826
0.0181878
0.00506889
-0.00228796
-0.00827402
-0.0163038
-0.0238618
-0.0203482
-0.000340584
0.0177942
0.00777126
-0.017848
-0.0355497
-0.0105714
0.0204956
0.0300509
0.0188523
0.00638296
-0.00132988
-0.00724299
-0.0145208
-0.021642
-0.0169043
-0.000578785
0.014514
0.00697035
-0.0205431
-0.0431564
-0.0264636
0.000888841
0.013168
0.007195
-0.000152614
-0.00283874
-0.00350664
-0.00575728
-0.00850744
-0.0017089
0.0121815
0.021436
0.00986457
-0.0184828
-0.0390109
-0.0262243
-0.00225318
0.010224
0.00639879
0.000256461
-0.00195116
-0.00200112
-0.00316163
-0.00437201
0.00248503
0.014274
0.0206889
0.00951302
-0.0192497
-0.0414631
-0.031612
-0.00833035
0.00533939
0.00390756
-0.00110877
-0.00273677
-0.00214958
-0.00233693
-0.00175699
0.00582764
0.0174528
0.0221293
0.0100767
SCALARS Mach float 1
LOOKUP_TABLE default
30.0592
30.0597
30.0605
30.0617
30.0625
30.0636
30.0639
30.0644
30.0641
30.0639
30.063
30.0623
30.0612
30.0605
30.06
29.5578
29.5572
29.5564
29.5553
29.5544
29.5536
29.553
29.5529
29.5531
29.5537
29.5546
29.5556
29.5567
29.5575
29.5581
30.1227
30.1232
30.1234
30.1239
30.1234
30.1238
30.123
30.1237
30.1233
30.1243
30.1242
30.125
30.1246
30.1246
30.1241
29.4855
29.4835
29.4805
29.4772
29.4745
29.4723
29.471
29.4706
29.4711
29.4725
29.4747
29.4775
29.4807
29.4837
29.4857
30.2043
30.2091
30.2135
30.2209
30.2233
30.2287
30.2284
30.2317
30.2291
30.2299
30.2251
30.2231
30.2163
30.2122
30.2076
29.3791
29.3727
29.3642
29.3582
29.3543
29.3531
29.3519
29.3525
29.352
29.3535
29.3547
29.3588
29.3646
29.3729
29.379
30.2727
30.3013
30.3264
30.364
30.3799
30.4068
30.4097
30.4224
30.4111
30.4095
30.3839
30.3691
30.333
30.3091
30.2816
29.231
29.2036
29.1819
29.181
29.184
29.1988
29.2027
29.2123
29.2034
29.2006
29.186
29.184
29.1838
29.2043
29.2296
30.1491
30.3261
30.4221
30.5847
30.6523
30.7586
30.7757
30.8166
30.7786
30.7642
30.6612
30.5954
30.437
30.3459
30.1752
28.8013
28.7409
28.8111
28.9404
29.0292
29.1648
29.2152
29.2723
29.2185
29.1725
29.0372
28.9543
28.8226
28.7493
28.7919
28.9426
30.0656
30.2852
31.0301
31.3378
31.6783
31.7917
31.8764
31.797
31.6878
31.3563
31.0506
30.3121
30.102
29.0259
24.3591
27.2071
28.2434
29.3332
29.9286
30.6283
30.8756
31.0683
30.885
30.6512
29.953
29.3755
28.2888
27.2954
24.3171
26.0605
28.0275
32.0864
33.2673
34.6177
34.7859
35.3809
35.1931
35.3887
34.8018
34.6439
33.3162
32.1443
28.0468
26.1814
48.758
44.9318
45.1236
43.7259
43.8699
42.6828
42.9518
42.2983
42.9503
42.6605
43.8694
43.664
45.0716
44.9523
49.6896
55.8604
52.0779
49.693
47.552
46.7588
45.3711
45.2402
44.6394
45.2523
45.3835
46.7936
47.5485
49.7491
52.4476
56.8598
57.6885
54.4933
51.7487
49.7507
48.7841
47.6151
47.3418
46.887
47.3669
47.6596
48.8566
49.8317
51.9499
55.0336
58.6867
43.6017
44.9956
42.9294
42.946
42.0318
42.0222
41.4725
41.6135
41.4909
42.0321
42.0755
42.9357
43.0582
45.4671
45.3395
25.8629
32.4612
32.6709
34.7149
34.7194
35.9845
35.6807
36.284
35.6618
35.95
34.6354
34.5587
32.5148
32.9217
27.5329
18.9724
24.8755
27.7097
29.7619
30.5065
31.5989
31.7023
32.1121
31.6755
31.5633
30.3726
29.5977
27.5803
25.4634
20.1518
28.0472
29.6297
31.6226
32.2407
32.5158
32.8223
32.8705
33.0166
32.8688
32.813
32.4436
32.1375
31.7094
30.406
29.554
25.1387
26.6817
28.5
29.4325
29.7741
30.0992
30.1963
30.3285
30.1911
30.0746
29.6763
29.3179
28.6114
27.4351
26.4967
27.937
29.1433
30.6902
31.4472
31.6886
31.7873
31.8479
31.893
31.8507
31.7667
31.6035
31.3645
30.8844
29.9601
29.3172
26.472
27.5942
29.0224
29.8545
30.1336
30.2329
30.2854
30.3266
30.285
30.2011
30.0384
29.7809
29.244
28.4024
27.7835
27.7452
28.7864
30.1289
30.9676
31.2617
31.3244
31.3568
31.3771
31.3551
31.2866
31.1655
30.9138
30.3906
29.615
29.0411
27.0048
27.9757
29.2499
30.1082
30.436
30.5048
30.5258
30.5399
30.5197
30.4583
30.3367
30.0697
29.5351
28.8005
28.2592
27.644
28.5611
29.7879
30.659
31.0172
31.0905
31.1011
31.1063
31.0903
31.0362
30.917
30.6369
30.098
29.3915
28.8774
27.3063
28.1714
29.3512
30.2285
30.6157
30.7015
30.706
30.7049
30.69
30.64
30.5159
30.2219
29.68
28.9988
28.5108
27.6026
28.4263
29.5696
30.4529
30.8675
30.9675
30.9686
30.9616
30.9471
30.8992
30.7689
30.4611
29.9159
29.2537
28.7866
27.5004
28.2851
29.3923
30.277
30.7156
30.8311
30.831
30.8189
30.804
30.7566
30.6191
30.2993
29.7529
29.1091
28.6617
27.5995
28.3516
29.4283
30.3135
30.774
30.906
30.9075
30.8915
30.875
30.8261
30.6804
30.3492
29.8019
29.1732
28.7423
