# vtk DataFile Version 3.0
Structured Grid Example
ASCII
DATASET STRUCTURED_GRID
DIMENSIONS 15 30 1
POINTS 450 FLOAT
0.0833327 0.0333334 0
0.0833313 0.1 0
0.0833301 0.166667 0
0.083329 0.233333 0
0.0833281 0.3 0
0.0833274 0.366667 0
0.083327 0.433333 0
0.0833268 0.5 0
0.083327 0.566667 0
0.0833274 0.633333 0
0.0833281 0.7 0
0.083329 0.766667 0
0.0833301 0.833333 0
0.0833313 0.9 0
0.0833327 0.966667 0
0.249998 0.0333334 0
0.249993 0.1 0
0.249989 0.166667 0
0.249986 0.233334 0
0.249983 0.3 0
0.24998 0.366667 0
0.249979 0.433333 0
0.249979 0.5 0
0.249979 0.566667 0
0.24998 0.633333 0
0.249983 0.7 0
0.249986 0.766666 0
0.249989 0.833333 0
0.249993 0.9 0
0.249998 0.966667 0
0.416662 0.0333336 0
0.416654 0.100001 0
0.416646 0.166668 0
0.416639 0.233334 0
0.416633 0.300001 0
0.416628 0.366667 0
0.416626 0.433334 0
0.416625 0.5 0
0.416626 0.566666 0
0.416628 0.633333 0
0.416633 0.699999 0
0.416639 0.766666 0
0.416646 0.833332 0
0.416654 0.899999 0
0.416662 0.966666 0
0.583326 0.033334 0
0.58331 0.100002 0
0.583296 0.166669 0
0.583284 0.233336 0
0.583273 0.300003 0
0.583266 0.366669 0
0.583261 0.433335 0
0.583259 0.5 0
0.583261 0.566665 0
0.583266 0.633331 0
0.583273 0.699997 0
0.583284 0.766664 0
0.583296 0.833331 0
0.58331 0.899998 0
0.583326 0.966666 0
0.749987 0.0333351 0
0.749961 0.100005 0
0.749937 0.166674 0
0.749915 0.233342 0
0.749898 0.300008 0
0.749884 0.366673 0
0.749876 0.433337 0
0.749874 0.5 0
0.749876 0.566663 0
0.749884 0.633327 0
0.749898 0.699992 0
0.749915 0.766658 0
0.749937 0.833326 0
0.749961 0.899995 0
0.749987 0.966665 0
0.916644 0.033338 0
0.916601 0.100013 0
0.91656 0.166686 0
0.916524 0.233356 0
0.916494 0.300021 0
0.916472 0.366683 0
0.916458 0.433342 0
0.916454 0.5 0
0.916458 0.566658 0
0.916472 0.633317 0
0.916494 0.699979 0
0.916524 0.766644 0
0.91656 0.833314 0
0.916601 0.899987 0
0.916644 0.966662 0
1.0833 0.0333461 0
1.08322 0.100036 0
1.08315 0.166719 0
1.08309 0.233394 0
1.08304 0.300058 0
1.08301 0.366712 0
1.08298 0.433358 0
1.08298 0.5 0
1.08298 0.566642 0
1.08301 0.633288 0
1.08304 0.699942 0
1.08309 0.766606 0
1.08315 0.833281 0
1.08322 0.899964 0
1.0833 0.966654 0
1.24994 0.0333682 0
1.24981 0.100098 0
1.2497 0.16681 0
1.24959 0.233497 0
1.24951 0.300156 0
1.24945 0.366788 0
1.24942 0.433399 0
1.2494 0.5 0
1.24942 0.566601 0
1.24945 0.633212 0
1.24951 0.699844 0
1.24959 0.766503 0
1.2497 0.83319 0
1.24981 0.899902 0
1.24994 0.966632 0
1.41656 0.0334298 0
1.41634 0.10027 0
1.41615 0.16706 0
1.41598 0.233778 0
1.41585 0.300419 0
1.41575 0.36699 0
1.41569 0.433509 0
1.41567 0.5 0
1.41569 0.566491 0
1.41575 0.63301 0
1.41585 0.699581 0
1.41598 0.766222 0
1.41615 0.83294 0
1.41634 0.89973 0
1.41656 0.96657 0
1.58313 0.0336075 0
1.58275 0.10076 0
1.58242 0.167751 0
1.58215 0.234537 0
1.58195 0.301115 0
1.58181 0.367517 0
1.58173 0.433791 0
1.58171 0.5 0
1.58173 0.566209 0
1.58181 0.632483 0
1.58195 0.698885 0
1.58215 0.765463 0
1.58242 0.832249 0
1.58275 0.89924 0
1.58313 0.966392 0
1.74959 0.0341677 0
1.74885 0.102235 0
1.74829 0.169714 0
1.74791 0.236575 0
1.74766 0.302905 0
1.74751 0.368829 0
1.74744 0.434482 0
1.74741 0.5 0
1.74744 0.565518 0
1.74751 0.631171 0
1.74766 0.697095 0
1.74791 0.763425 0
1.74829 0.830286 0
1.74885 0.897765 0
1.74959 0.965832 0
1.91555 0.0363295 0
1.91388 0.107253 0
1.91312 0.175401 0
1.91283 0.241837 0
1.91276 0.307169 0
1.91277 0.371793 0
1.9128 0.435995 0
1.91281 0.5 0
1.9128 0.564005 0
1.91277 0.628207 0
1.91276 0.692831 0
1.91283 0.758163 0
1.91312 0.824599 0
1.91388 0.892747 0
1.91555 0.963671 0
2.07838 0.0591504 0
2.07417 0.125973 0
2.07554 0.190391 0
2.07663 0.253364 0
2.07743 0.315525 0
2.07798 0.377223 0
2.07829 0.438667 0
2.0784 0.5 0
2.07829 0.561333 0
2.07798 0.622777 0
2.07743 0.684475 0
2.07663 0.746636 0
2.07554 0.809609 0
2.07417 0.874027 0
2.07838 0.94085 0
2.24384 0.096456 0
2.23911 0.153168 0
2.24152 0.210396 0
2.24318 0.267878 0
2.24431 0.325632 0
2.24503 0.383617 0
2.24544 0.441767 0
2.24557 0.5 0
2.24544 0.558233 0
2.24503 0.616383 0
2.24431 0.674368 0
2.24318 0.732122 0
2.24152 0.789604 0
2.23911 0.846832 0
2.24384 0.903544 0
2.41462 0.118677 0
2.41292 0.170231 0
2.41356 0.223198 0
2.41406 0.277268 0
2.41444 0.332207 0
2.4147 0.387788 0
2.41485 0.44379 0
2.4149 0.5 0
2.41485 0.55621 0
2.4147 0.612212 0
2.41444 0.667793 0
2.41406 0.722732 0
2.41356 0.776802 0
2.41292 0.829769 0
2.41462 0.881323 0
2.58538 0.118677 0
2.58708 0.170231 0
2.58644 0.223198 0
2.58594 0.277268 0
2.58556 0.332207 0
2.5853 0.387788 0
2.58515 0.44379 0
2.5851 0.5 0
2.58515 0.55621 0
2.5853 0.612212 0
2.58556 0.667793 0
2.58594 0.722732 0
2.58644 0.776802 0
2.58708 0.829769 0
2.58538 0.881323 0
2.75616 0.096456 0
2.76089 0.153168 0
2.75848 0.210396 0
2.75682 0.267878 0
2.75569 0.325632 0
2.75497 0.383617 0
2.75456 0.441767 0
2.75443 0.5 0
2.75456 0.558233 0
2.75497 0.616383 0
2.75569 0.674368 0
2.75682 0.732122 0
2.75848 0.789604 0
2.76089 0.846832 0
2.75616 0.903544 0
2.92162 0.0591504 0
2.92583 0.125973 0
2.92446 0.190391 0
2.92337 0.253364 0
2.92257 0.315525 0
2.92202 0.377223 0
2.92171 0.438667 0
2.9216 0.5 0
2.92171 0.561333 0
2.92202 0.622777 0
2.92257 0.684475 0
2.92337 0.746636 0
2.92446 0.809609 0
2.92583 0.874027 0
2.92162 0.94085 0
3.08445 0.0363295 0
3.08612 0.107253 0
3.08688 0.175401 0
3.08717 0.241837 0
3.08724 0.307169 0
3.08723 0.371793 0
3.0872 0.435995 0
3.08719 0.5 0
3.0872 0.564005 0
3.08723 0.628207 0
3.08724 0.692831 0
3.08717 0.758163 0
3.08688 0.824599 0
3.08612 0.892747 0
3.08445 0.963671 0
3.25041 0.0341677 0
3.25115 0.102235 0
3.25171 0.169714 0
3.25209 0.236575 0
3.25234 0.302905 0
3.25249 0.368829 0
3.25256 0.434482 0
3.25259 0.5 0
3.25256 0.565518 0
3.25249 0.631171 0
3.25234 0.697095 0
3.25209 0.763425 0
3.25171 0.830286 0
3.25115 0.897765 0
3.25041 0.965832 0
3.41687 0.0336075 0
3.41725 0.10076 0
3.41758 0.167751 0
3.41785 0.234537 0
3.41805 0.301115 0
3.41819 0.367517 0
3.41827 0.433791 0
3.41829 0.5 0
3.41827 0.566209 0
3.41819 0.632483 0
3.41805 0.698885 0
3.41785 0.765463 0
3.41758 0.832249 0
3.41725 0.89924 0
3.41687 0.966392 0
3.58344 0.0334298 0
3.58366 0.10027 0
3.58385 0.16706 0
3.58402 0.233778 0
3.58415 0.300419 0
3.58425 0.36699 0
3.58431 0.433509 0
3.58433 0.5 0
3.58431 0.566491 0
3.58425 0.63301 0
3.58415 0.699581 0
3.58402 0.766222 0
3.58385 0.83294 0
3.58366 0.89973 0
3.58344 0.96657 0
3.75006 0.0333682 0
3.75019 0.100098 0
3.7503 0.16681 0
3.75041 0.233497 0
3.75049 0.300156 0
3.75055 0.366788 0
3.75058 0.433399 0
3.7506 0.5 0
3.75058 0.566601 0
3.75055 0.633212 0
3.75049 0.699844 0
3.75041 0.766503 0
3.7503 0.83319 0
3.75019 0.899902 0
3.75006 0.966632 0
3.9167 0.0333461 0
3.91678 0.100036 0
3.91685 0.166719 0
3.91691 0.233394 0
3.91696 0.300058 0
3.91699 0.366712 0
3.91702 0.433358 0
3.91702 0.5 0
3.91702 0.566642 0
3.91699 0.633288 0
3.91696 0.699942 0
3.91691 0.766606 0
3.91685 0.833281 0
3.91678 0.899964 0
3.9167 0.966654 0
4.08336 0.033338 0
4.0834 0.100013 0
4.08344 0.166686 0
4.08348 0.233356 0
4.08351 0.300021 0
4.08353 0.366683 0
4.08354 0.433342 0
4.08355 0.5 0
4.08354 0.566658 0
4.08353 0.633317 0
4.08351 0.699979 0
4.08348 0.766644 0
4.08344 0.833314 0
4.0834 0.899987 0
4.08336 0.966662 0
4.25001 0.0333351 0
4.25004 0.100005 0
4.25006 0.166674 0
4.25008 0.233342 0
4.2501 0.300008 0
4.25012 0.366673 0
4.25012 0.433337 0
4.25013 0.5 0
4.25012 0.566663 0
4.25012 0.633327 0
4.2501 0.699992 0
4.25008 0.766658 0
4.25006 0.833326 0
4.25004 0.899995 0
4.25001 0.966665 0
4.41667 0.033334 0
4.41669 0.100002 0
4.4167 0.166669 0
4.41672 0.233336 0
4.41673 0.300003 0
4.41673 0.366669 0
4.41674 0.433335 0
4.41674 0.5 0
4.41674 0.566665 0
4.41673 0.633331 0
4.41673 0.699997 0
4.41672 0.766664 0
4.4167 0.833331 0
4.41669 0.899998 0
4.41667 0.966666 0
4.58334 0.0333336 0
4.58335 0.100001 0
4.58335 0.166668 0
4.58336 0.233334 0
4.58337 0.300001 0
4.58337 0.366667 0
4.58337 0.433334 0
4.58338 0.5 0
4.58337 0.566666 0
4.58337 0.633333 0
4.58337 0.699999 0
4.58336 0.766666 0
4.58335 0.833332 0
4.58335 0.899999 0
4.58334 0.966666 0
4.75 0.0333334 0
4.75001 0.1 0
4.75001 0.166667 0
4.75001 0.233334 0
4.75002 0.3 0
4.75002 0.366667 0
4.75002 0.433333 0
4.75002 0.5 0
4.75002 0.566667 0
4.75002 0.633333 0
4.75002 0.7 0
4.75001 0.766666 0
4.75001 0.833333 0
4.75001 0.9 0
4.75 0.966667 0
4.91667 0.0333334 0
4.91667 0.1 0
4.91667 0.166667 0
4.91667 0.233333 0
4.91667 0.3 0
4.91667 0.366667 0
4.91667 0.433333 0
4.91667 0.5 0
4.91667 0.566667 0
4.91667 0.633333 0
4.91667 0.7 0
4.91667 0.766667 0
4.91667 0.833333 0
4.91667 0.9 0
4.91667 0.966667 0
POINT_DATA 450
SCALARS pressure float 1
LOOKUP_TABLE default
94520.5
94512.7
94501.6
94485.4
94469.8
94455.8
94446.2
94443.1
94446.1
94455.5
94469.3
94484.8
94500.8
94511.9
94519.6
94338.4
94318.8
94283.6
94235.9
94189.1
94145.4
94118.2
94106.6
94117.9
94144.9
94188.3
94234.9
94282.3
94317.4
94336.9
94648.7
94634.3
94602.1
94561
94519.9
94480.2
94457.1
94445.3
94456.9
94479.9
94519.4
94560.4
94601.3
94633.5
94647.8
94229.2
94219.9
94191.4
94157
94122.5
94086.7
94068.7
94056
94068.5
94086.3
94121.9
94156.2
94190.5
94219
94228.2
94625
94632.2
94623.7
94620.8
94615.8
94606.4
94607
94599.4
94606.8
94606.1
94615.4
94620.5
94623.4
94631.9
94624.8
93917.3
93949.6
93980.4
94031.9
94083.2
94121.4
94158.1
94159.3
94157.8
94120.9
94082.6
94031.2
93979.7
93948.9
93916.7
94400.1
94463
94544.3
94668.2
94789.7
94895.2
94974.3
94992.9
94974.1
94894.9
94789.4
94667.8
94544
94462.7
94399.9
93457.9
93542
93675.6
93858.9
94053.9
94216.3
94343.6
94371.9
94343.2
94215.5
94052.8
93857.5
93673.9
93540.2
93456
94275.7
94369.9
94534.5
94758.5
94991.9
95196.7
95344
95387.4
95343.8
95196
94991.2
94757.3
94533.4
94368.4
94274.3
93294.9
93332.1
93504.5
93670.1
93907.9
94072.3
94227
94249.3
94225.9
94070.4
93904.7
93666.2
93499.5
93326.6
93289
94804.7
94742.7
94853.6
94936.3
95092
95194.5
95296
95309.3
95295.5
95192.3
95090.6
94932.1
94851.3
94737.3
94801.6
94265.5
93560.2
93617
93317.1
93374.5
93275
93322.6
93279.4
93320.5
93272
93367.8
93309.9
93604.8
93546.6
94247.2
95996.5
95387.1
95004.9
94731.8
94597.4
94472.9
94432.6
94397.4
94432.2
94467.7
94596.8
94719.5
95005.7
95363.4
95999.2
89221.5
90272.9
89880.2
90528.8
90295.6
90696.4
90482.5
90751.7
90482.2
90701.2
90295
90541.3
89879.9
90300.1
89214.9
90317.9
91601.8
91478.3
92263.4
92078.4
92570.5
92326.7
92658.3
92323.3
92573.5
92067.9
92270.7
91459.8
91615.6
90283.1
87486.3
88938.8
88696.3
89640.8
89370.2
89993.7
89662
90097.8
89655.4
89990.4
89349
89631.3
88657.2
88914.8
87413.6
91903.2
92628.6
92352.6
92846.2
92570
92931.6
92644.1
92950.7
92638.9
92935.3
92552.8
92853
92318.3
92633.8
91842.3
93456.5
92877.6
92667.9
92378.7
92158.8
92072
91899.1
91968.8
91896.9
92089.4
92151.8
92417.8
92652.6
92951.3
93454
97125.4
96033.3
95742.9
95114.9
94838.8
94514.9
94373.2
94306.8
94380.3
94528.4
94862.1
95142
95788.3
96073.6
97227.7
93217
93250.6
93135.1
93049.4
92903.7
92818.9
92722.2
92721.1
92721.6
92821
92901.6
93051.9
93130.7
93250.4
93211.5
95179.6
95087.4
95001.1
94856.6
94766.6
94653
94612.7
94574.5
94615.6
94658.4
94775.2
94866.3
95013.9
95100
95195.5
93417.4
93442.3
93447
93472.4
93486.7
93500.7
93511.3
93511.9
93511.7
93502
93487.9
93474.3
93448.6
93444.4
93419.4
94381.4
94418.9
94463.8
94533
94604.8
94660.4
94709.4
94715.4
94710.6
94662.6
94608
94536.8
94467.9
94422.7
94384.8
93482.2
93533.9
93608
93717.1
93823
93916.9
93982.6
94002
93983.2
93918
93824.5
93719.1
93609.9
93535.6
93483.5
94117.8
94161.7
94232.4
94332
94430.6
94518.4
94578.9
94598
94579.3
94519.2
94431.6
94333.2
94233.6
94162.5
94118.1
93693.8
93724.8
93778.5
93852.4
93925.4
93992.1
94035.8
94051.9
94036
93992.5
93925.9
93853.2
93779.3
93725.5
93694.4
94156
94172.4
94203.2
94245
94286.7
94325.9
94350.9
94361
94350.9
94325.9
94286.6
94244.9
94203
94172.1
94155.6
93914.5
93922.2
93937.2
93957.7
93978.5
93998.8
94011.4
94017.2
94011.5
93998.9
93978.6
93957.9
93937.5
93922.6
93915
94231.7
94234.2
94239.6
94246.9
94254.8
94262.8
94267.9
94270.3
94267.8
94262.7
94254.6
94246.6
94239.3
94233.9
94231.5
94027
94029.4
94033.8
94039.1
94044.6
94049.4
94052.7
94054
94052.7
94049.5
94044.7
94039.2
94034
94029.9
94027.6
SCALARS density float 1
LOOKUP_TABLE default
1.21484
1.21476
1.21465
1.2145
1.21434
1.21421
1.21412
1.21408
1.21411
1.21421
1.21434
1.21449
1.21465
1.21475
1.21483
1.21305
1.21287
1.21254
1.21211
1.21168
1.21127
1.21102
1.21092
1.21102
1.21127
1.21167
1.2121
1.21253
1.21286
1.21304
1.21583
1.2157
1.2154
1.21503
1.21465
1.21429
1.21408
1.21397
1.21408
1.21429
1.21465
1.21502
1.2154
1.21569
1.21582
1.21196
1.21187
1.21161
1.21129
1.21098
1.21065
1.21048
1.21037
1.21048
1.21065
1.21097
1.21129
1.2116
1.21186
1.21195
1.21561
1.21568
1.2156
1.21557
1.21553
1.21544
1.21545
1.21538
1.21545
1.21544
1.21553
1.21557
1.2156
1.21567
1.21561
1.2092
1.2095
1.20979
1.21026
1.21073
1.21109
1.21143
1.21144
1.21142
1.21108
1.21073
1.21026
1.20978
1.20949
1.2092
1.21374
1.21432
1.21506
1.2162
1.21732
1.21828
1.21901
1.21918
1.21901
1.21828
1.21731
1.2162
1.21506
1.21432
1.21374
1.20528
1.20606
1.20729
1.20898
1.21078
1.21227
1.21345
1.21371
1.21344
1.21227
1.21077
1.20897
1.20728
1.20604
1.20526
1.21267
1.21354
1.21507
1.21714
1.21928
1.22116
1.22251
1.2229
1.2225
1.22115
1.21928
1.21713
1.21506
1.21353
1.21266
1.20422
1.20456
1.2061
1.2076
1.20977
1.21127
1.21269
1.21289
1.21268
1.21126
1.20974
1.20756
1.20606
1.20451
1.20416
1.21653
1.21618
1.21738
1.21829
1.2198
1.22079
1.22174
1.22187
1.22174
1.22077
1.21979
1.21826
1.21736
1.21613
1.21652
1.2158
1.20834
1.20837
1.20517
1.2055
1.20439
1.20477
1.20432
1.20475
1.20436
1.20542
1.20509
1.20825
1.20821
1.21562
1.22463
1.22013
1.21735
1.21546
1.21449
1.21355
1.21325
1.21298
1.21325
1.21351
1.2145
1.21537
1.21737
1.21988
1.22464
1.165
1.17543
1.17148
1.17771
1.17554
1.17937
1.17737
1.17992
1.17737
1.17942
1.17554
1.17782
1.17146
1.17581
1.16558
1.17625
1.18872
1.18709
1.19432
1.19245
1.19702
1.1947
1.19779
1.19467
1.19705
1.19236
1.19438
1.18692
1.18907
1.17646
1.14803
1.16221
1.1599
1.16877
1.16625
1.17214
1.16908
1.17315
1.16902
1.17211
1.16605
1.16867
1.15956
1.16223
1.14786
1.18986
1.19715
1.19487
1.19941
1.19696
1.20026
1.19769
1.20046
1.19764
1.2003
1.1968
1.19945
1.19457
1.19745
1.19023
1.20358
1.19904
1.1974
1.19454
1.19251
1.19164
1.19012
1.1907
1.1901
1.1918
1.19244
1.19485
1.19728
1.20015
1.20487
1.23513
1.22703
1.22526
1.21977
1.2173
1.2144
1.21317
1.21256
1.21324
1.21452
1.21749
1.21994
1.2257
1.22789
1.2373
1.20046
1.20163
1.20133
1.20077
1.19945
1.19869
1.19785
1.19784
1.19785
1.19871
1.1994
1.20072
1.20136
1.20217
1.2015
1.21848
1.21837
1.21835
1.21734
1.21656
1.21554
1.21522
1.21488
1.21525
1.21558
1.21659
1.21735
1.21857
1.21907
1.2197
1.20233
1.20318
1.20393
1.20451
1.20471
1.20485
1.20498
1.205
1.20498
1.20485
1.20466
1.20447
1.20409
1.20379
1.20336
1.21109
1.21201
1.2131
1.21411
1.21486
1.21538
1.21586
1.21593
1.21587
1.21538
1.21482
1.21409
1.21331
1.21265
1.21211
1.20285
1.20382
1.20513
1.20651
1.20759
1.20846
1.20908
1.20927
1.20908
1.20844
1.20753
1.20649
1.20533
1.20444
1.2038
1.20872
1.20957
1.2108
1.21209
1.21311
1.21393
1.21449
1.21467
1.21449
1.2139
1.21305
1.21207
1.21101
1.21017
1.20963
1.20503
1.20571
1.20673
1.20777
1.20857
1.2092
1.2096
1.20975
1.20959
1.20916
1.2085
1.20776
1.20695
1.2063
1.20589
1.20937
1.20988
1.21064
1.21137
1.21188
1.21226
1.21248
1.21257
1.21247
1.21221
1.21181
1.21136
1.21086
1.21044
1.21019
1.20767
1.20808
1.20868
1.20921
1.20954
1.20974
1.20985
1.2099
1.20983
1.20969
1.20947
1.20921
1.20891
1.20864
1.20848
1.21013
1.21048
1.21098
1.21139
1.21161
1.2117
1.21174
1.21175
1.21172
1.21165
1.21154
1.2114
1.21122
1.21104
1.21093
1.20977
1.21013
1.21064
1.21107
1.2113
1.21138
1.21139
1.21139
1.21137
1.21132
1.21123
1.21109
1.21091
1.21072
1.21059
SCALARS u-velocity float 1
LOOKUP_TABLE default
99.3935
99.4101
99.4288
99.4591
99.4865
99.5117
99.5288
99.5343
99.5296
99.5132
99.4887
99.4619
99.4321
99.4136
99.3973
98.3954
98.4301
98.4856
98.563
98.6386
98.7081
98.7531
98.7702
98.7539
98.7096
98.6409
98.5659
98.4891
98.4339
98.3994
99.3593
99.3938
99.4554
99.5378
99.6182
99.6938
99.7398
99.7606
99.7407
99.6955
99.6206
99.5409
99.4591
99.398
99.3637
98.2575
98.2868
98.3475
98.4264
98.5072
98.583
98.6298
98.6509
98.6303
98.5839
98.5085
98.428
98.3493
98.2887
98.2593
99.5216
99.5534
99.6218
99.707
99.7874
99.8682
99.9101
99.9371
99.9113
99.8705
99.7907
99.7112
99.6269
99.5591
99.5276
98.2556
98.2418
98.2502
98.2565
98.2715
98.2913
98.2979
98.3092
98.2983
98.2921
98.2724
98.2575
98.2507
98.2418
98.2552
99.9611
99.9736
99.9864
99.9932
99.9701
99.9706
99.9409
99.956
99.9433
99.975
99.9767
100.002
99.997
99.9863
99.9755
98.3812
98.2689
98.1425
98.004
97.8771
97.7794
97.7028
97.6914
97.704
97.7823
97.8803
98.0086
98.1452
98.2695
98.3784
100.111
100.317
100.338
100.412
100.334
100.33
100.243
100.266
100.248
100.339
100.348
100.43
100.363
100.349
100.153
97.7467
97.5619
97.539
97.5639
97.5244
97.5718
97.5463
97.593
97.552
97.585
97.5383
97.588
97.559
97.5766
97.7312
97.9647
99.7702
100.008
101.089
101.454
101.88
101.993
102.091
102.002
101.895
101.485
101.122
100.054
99.8306
98.1047
89.4989
94.4954
96.2878
98.07
99.0534
100.172
100.572
100.873
100.587
100.21
99.0939
98.1414
96.3646
94.6474
89.4181
89.6522
93.943
101.52
103.895
106.459
106.97
108.052
107.81
108.068
107.001
106.514
103.987
101.649
94.0102
89.9275
123.262
119.87
120.555
119.245
119.665
118.281
118.745
117.895
118.745
118.256
119.672
119.173
120.503
119.923
124.429
134.442
130.237
127.288
124.754
123.763
122.042
121.885
121.118
121.902
122.061
123.81
124.754
127.358
130.698
135.61
136.639
132.922
129.718
127.31
126.14
124.714
124.357
123.81
124.388
124.767
126.227
127.401
129.956
133.553
137.781
117.542
119.995
117.902
118.213
117.217
117.359
116.651
116.902
116.672
117.359
117.26
118.161
118.034
120.528
119.783
88.968
101.371
102.397
106.129
106.478
108.661
108.326
109.291
108.292
108.59
106.33
105.837
102.106
101.965
91.813
78.8664
90.3155
95.3977
98.9833
100.33
102.224
102.461
103.149
102.417
102.166
100.111
98.7103
95.1748
91.3703
81.2823
95.7031
98.3995
101.735
102.854
103.411
104.018
104.162
104.426
104.159
104.002
103.296
102.688
101.87
99.6724
98.2258
90.9881
93.7279
96.8872
98.487
99.0938
99.6694
99.849
100.08
99.8405
99.6288
98.932
98.2964
97.075
95.0324
93.3955
96.0536
98.0588
100.584
101.767
102.115
102.241
102.31
102.379
102.314
102.207
101.979
101.634
100.899
99.4108
98.3734
93.7527
95.6464
97.997
99.2791
99.6416
99.714
99.7387
99.7861
99.7379
99.6616
99.4851
99.1588
98.3688
97.0232
96.0201
95.9507
97.6579
99.7974
101.044
101.402
101.392
101.372
101.377
101.369
101.331
101.247
100.959
100.228
99.0393
98.1387
94.601
96.2283
98.3029
99.6304
100.076
100.101
100.08
100.079
100.07
100.025
99.9146
99.5694
98.7798
97.624
96.7497
95.5238
97.0623
99.0664
100.446
100.978
101.048
101.036
101.03
101.019
100.961
100.816
100.412
99.5793
98.4526
97.6123
94.8536
96.333
98.3042
99.7461
100.37
100.499
100.501
100.494
100.475
100.399
100.208
99.7368
98.8511
97.7279
96.907
95.2936
96.7047
98.6241
100.092
100.78
100.953
100.961
100.951
100.926
100.842
100.62
100.107
99.1972
98.0928
97.3016
95.1515
96.501
98.3714
99.8517
100.585
100.789
100.798
100.781
100.754
100.667
100.429
99.8889
98.9697
97.8873
97.1261
95.2988
96.5875
98.4042
99.8801
100.647
100.875
100.886
100.863
100.834
100.746
100.496
99.9402
99.0242
97.9685
97.239
SCALARS v-velocity float 1
LOOKUP_TABLE default
-0.0107343
-0.0257453
-0.0411143
-0.0451128
-0.044754
-0.0341075
-0.019236
-0.000245824
0.0187437
0.033648
0.0443247
0.0447584
0.040826
0.025579
0.0106631
0.0319414
0.0872587
0.124196
0.146326
0.134738
0.108681
0.0581005
0.00153456
-0.0551094
-0.105833
-0.132191
-0.144161
-0.122553
-0.0862286
-0.0315715
0.0746054
0.198323
0.29196
0.338057
0.318644
0.253003
0.136783
0.00150576
-0.133822
-0.250155
-0.316039
-0.335818
-0.290225
-0.197243
-0.0741987
0.122251
0.319031
0.476112
0.545898
0.51959
0.409921
0.223775
0.0033344
-0.217245
-0.403674
-0.513914
-0.541041
-0.472333
-0.316676
-0.121378
0.165034
0.429888
0.649622
0.744314
0.71517
0.562858
0.308312
0.00243865
-0.303499
-0.558361
-0.711138
-0.741012
-0.647167
-0.42843
-0.164515
0.21532
0.543429
0.831517
0.937734
0.908875
0.709228
0.392647
0.00590686
-0.381162
-0.698338
-0.89913
-0.929489
-0.825062
-0.539395
-0.213799
0.184076
0.470916
0.7428
0.840935
0.831102
0.646885
0.361937
0.00336196
-0.355187
-0.641102
-0.826222
-0.837535
-0.74094
-0.470131
-0.184108
0.219662
0.480294
0.753484
0.808791
0.797314
0.604885
0.342571
0.0109487
-0.321549
-0.584593
-0.779228
-0.793102
-0.7405
-0.471477
-0.215864
0.0628156
0.196278
0.358479
0.368086
0.396133
0.28661
0.1751
0.00738675
-0.159248
-0.274172
-0.385161
-0.361182
-0.356092
-0.197248
-0.066464
0.319015
0.334239
0.466457
0.433595
0.343251
0.239644
0.125454
0.0209514
-0.0865185
-0.199661
-0.30768
-0.4008
-0.438236
-0.310398
-0.302344
0.955204
1.28641
1.39674
1.16612
0.981492
0.634154
0.345897
0.0242294
-0.289937
-0.590353
-0.935727
-1.13528
-1.37047
-1.2819
-0.985627
-0.526218
2.78347
1.6762
2.10533
1.12298
0.981348
0.383487
0.0382164
-0.318061
-0.908326
-1.06513
-2.04359
-1.64449
-2.76106
0.564216
22.7865
19.3209
15.1564
12.0011
8.22193
5.48663
2.61082
0.068898
-2.446
-5.34597
-8.03647
-11.8599
-14.9279
-19.1457
-22.5543
24.8534
15.694
12.6582
8.18324
6.14588
3.48899
1.85451
0.0776929
-1.70937
-3.33096
-6.00143
-8.01031
-12.4873
-15.4938
-25.0197
11.2949
6.92002
6.48337
3.8833
3.45346
1.80146
1.10205
0.0711852
-1.01298
-1.66549
-3.3925
-3.76027
-6.47834
-6.8822
-11.5247
-8.2559
-8.6495
-4.85553
-4.9811
-2.56957
-2.23766
-0.761662
0.128372
0.945046
2.49575
2.75649
5.24905
5.06008
8.93837
8.48668
-20.8195
-18.134
-12.1983
-10.1614
-6.32336
-4.47855
-1.88898
0.157217
2.11438
4.81566
6.58109
10.5765
12.5734
18.7986
21.4936
-23.2139
-18.2763
-14.3542
-10.7976
-7.8167
-4.94846
-2.41315
0.188529
2.61087
5.34812
8.01641
11.283
14.5936
19.0393
23.7964
-2.36466
-0.236052
-1.88057
-0.928355
-1.40122
-0.635512
-0.478256
0.0434594
0.50104
0.708135
1.40333
0.975266
1.85081
0.169809
2.22596
-1.72363
-1.74624
-2.01467
-1.42814
-1.3198
-0.722853
-0.406582
0.0557114
0.471455
0.823285
1.37848
1.51266
2.04954
1.70263
1.69952
0.0238523
0.303727
0.487147
0.776652
0.592088
0.560354
0.262235
0.00974365
-0.258579
-0.545119
-0.582841
-0.757154
-0.489571
-0.352379
-0.0513871
0.0473141
0.212481
0.442838
0.65407
0.583498
0.502286
0.260795
0.0109294
-0.24791
-0.482931
-0.565244
-0.634919
-0.450117
-0.260208
-0.0727929
0.140454
0.353414
0.629338
0.776418
0.728305
0.57203
0.304759
0.00116165
-0.304996
-0.567216
-0.717893
-0.764872
-0.637496
-0.387255
-0.159654
0.0640452
0.166584
0.34332
0.437697
0.42975
0.328653
0.177178
-0.000809973
-0.179431
-0.326206
-0.421934
-0.432235
-0.357946
-0.200885
-0.0825684
0.0151958
0.041807
0.138024
0.187601
0.198067
0.142426
0.0774701
-0.00158655
-0.0797815
-0.139496
-0.189121
-0.18095
-0.148146
-0.0667642
-0.0288726
-0.0311862
-0.0743009
-0.0471276
-0.0232026
-9.51953e-05
-0.0104412
-0.00643612
-0.00331007
0.00131512
0.0107142
0.00544594
0.0247393
0.0329866
0.048933
0.0180949
-0.0445551
-0.108441
-0.112321
-0.100174
-0.0763867
-0.0672379
-0.0376998
-0.00218661
0.0352275
0.0702637
0.0839076
0.103545
0.101693
0.0883605
0.0341597
-0.0426744
-0.103369
-0.113259
-0.101153
-0.0800133
-0.0676602
-0.0395698
-0.00364608
0.0343752
0.0678178
0.0837468
0.0999603
0.0991943
0.0822166
0.0322904
-0.0323311
-0.0762659
-0.0818556
-0.0676711
-0.0517433
-0.0435167
-0.0268357
-0.00274695
0.0235584
0.0454097
0.0565093
0.0672075
0.0696194
0.0579807
0.023406
-0.024084
-0.0539555
-0.050971
-0.0319623
-0.0178497
-0.0154469
-0.0119955
-0.0035226
0.00720594
0.0155939
0.0201598
0.028429
0.0360659
0.0342298
0.0147563
SCALARS Mach float 1
LOOKUP_TABLE default
29.9328
29.9431
29.9549
29.9738
29.9909
30.0066
30.0173
30.0207
30.0177
30.0075
29.9922
29.9754
29.9569
29.9453
29.9351
29.3414
29.363
29.3977
29.4461
29.4933
29.5368
29.565
29.5757
29.5654
29.5377
29.4947
29.4479
29.3998
29.3653
29.3438
29.9042
29.9257
29.9645
30.0161
30.0664
30.1138
30.1426
30.1556
30.1431
30.1148
30.0679
30.018
29.9668
29.9283
29.9069
29.263
29.2811
29.319
29.3678
29.4175
29.4641
29.4925
29.5056
29.4928
29.4646
29.4183
29.3688
29.3201
29.2823
29.2641
30.0031
30.0224
30.0648
30.1168
30.1655
30.2142
30.2389
30.2553
30.2396
30.2156
30.1675
30.1194
30.0679
30.0259
30.0067
29.2772
29.2683
29.2731
29.2752
29.2818
29.2909
29.2922
29.2983
29.2923
29.2913
29.2822
29.2758
29.2734
29.2683
29.277
30.2814
30.2867
30.2917
30.2906
30.2711
30.2657
30.2433
30.2511
30.2447
30.2683
30.2751
30.2957
30.2982
30.2944
30.2901
29.3764
29.3062
29.2259
29.1357
29.0517
28.9858
28.9341
28.9258
28.9348
28.9875
29.0535
29.1384
29.2276
29.3066
29.3748
30.3786
30.4996
30.5056
30.5405
30.4821
30.4704
30.4108
30.4222
30.4137
30.4759
30.491
30.5512
30.5205
30.5195
30.4047
29.0113
28.9002
28.8787
28.8858
28.8514
28.8721
28.85
28.8766
28.8534
28.8799
28.8598
28.9001
28.8907
28.9091
29.0024
29.0578
30.1464
30.2886
30.9426
31.1593
31.4154
31.4799
31.5396
31.4852
31.4251
31.178
30.9634
30.3159
30.1831
29.1414
24.3131
27.1446
28.16
29.2248
29.7988
30.477
30.7154
30.9005
30.7247
30.4996
29.823
29.2667
28.205
27.232
24.27
25.8297
27.8045
31.875
33.1136
34.5254
34.7515
35.3888
35.2129
35.3968
34.7673
34.5518
33.1623
31.9333
27.8229
25.9469
48.2872
44.5715
44.8336
43.5491
43.7826
42.6751
42.9976
42.3569
42.9962
42.6533
43.7825
43.488
44.7819
44.5916
49.2093
55.5168
51.7869
49.4557
47.3706
46.6227
45.2751
45.1686
44.576
45.1808
45.2877
46.6573
47.3672
49.5111
52.1549
56.5103
57.3687
54.2081
51.4994
49.5377
48.5985
47.456
47.1965
46.7482
47.2213
47.5
48.6699
49.6174
51.6983
54.7448
58.3599
43.333
44.7478
42.7111
42.7625
41.8777
41.8944
41.3612
41.5077
41.3791
41.9038
41.9198
42.751
42.8365
45.2158
45.059
25.6413
32.2192
32.4801
34.585
34.6537
35.9744
35.7073
36.3237
35.6878
35.9389
34.5682
34.427
32.3215
32.6747
27.2994
18.7629
24.6423
27.5259
29.656
30.4854
31.6587
31.8124
32.2439
31.7853
31.6222
30.351
29.4908
27.3956
25.2246
19.9341
27.7878
29.3845
31.428
32.1243
32.48
32.8631
32.9586
33.1254
32.9568
32.8534
32.4076
32.0203
31.5136
30.1557
29.285
25.0347
26.577
28.412
29.3692
29.736
30.0879
30.1981
30.3397
30.1928
30.063
29.638
29.2542
28.5229
27.3281
26.388
27.9744
29.1612
30.6915
31.4216
31.6372
31.7141
31.7564
31.7991
31.759
31.6931
31.5517
31.3389
30.8862
29.9782
29.3543
26.6103
27.7014
29.0868
29.8549
30.071
30.1117
30.1239
30.1523
30.1234
30.0797
29.9756
29.7817
29.3097
28.5117
27.9243
27.9108
28.9167
30.2023
30.9617
31.1776
31.1668
31.1514
31.1534
31.1495
31.1288
31.0814
30.9089
30.466
29.7479
29.2097
27.1053
28.0492
29.2756
30.0717
30.3383
30.3493
30.3339
30.3326
30.3278
30.3028
30.2396
30.0345
29.5627
28.8758
28.3612
27.6568
28.5583
29.7538
30.5891
30.9123
30.9526
30.9432
30.9386
30.9324
30.8985
30.8127
30.5684
30.0653
29.3893
28.8897
27.2521
28.1123
29.279
30.1465
30.5243
30.6015
30.6013
30.5967
30.5852
30.5401
30.4251
30.1408
29.6084
28.939
28.4545
27.5215
28.3462
29.4875
30.3755
30.795
30.8999
30.9044
30.8976
30.8828
30.8315
30.6967
30.3844
29.8341
29.1726
28.7031
27.4211
28.2082
29.3174
30.2103
30.6574
30.7813
30.7864
30.7758
30.7593
30.7067
30.5611
30.2329
29.6781
29.0312
28.5805
27.5319
28.2854
29.3649
30.2569
30.7254
30.8649
30.8714
30.8569
30.839
30.7851
30.6323
30.2935
29.7394
29.107
28.674
