# vtk DataFile Version 3.0
Structured Grid Example
ASCII
DATASET STRUCTURED_GRID
DIMENSIONS 15 30 1
POINTS 450 FLOAT
0.0833327 0.0333334 0
0.0833313 0.1 0
0.0833301 0.166667 0
0.083329 0.233333 0
0.0833281 0.3 0
0.0833274 0.366667 0
0.083327 0.433333 0
0.0833268 0.5 0
0.083327 0.566667 0
0.0833274 0.633333 0
0.0833281 0.7 0
0.083329 0.766667 0
0.0833301 0.833333 0
0.0833313 0.9 0
0.0833327 0.966667 0
0.249998 0.0333334 0
0.249993 0.1 0
0.249989 0.166667 0
0.249986 0.233334 0
0.249983 0.3 0
0.24998 0.366667 0
0.249979 0.433333 0
0.249979 0.5 0
0.249979 0.566667 0
0.24998 0.633333 0
0.249983 0.7 0
0.249986 0.766666 0
0.249989 0.833333 0
0.249993 0.9 0
0.249998 0.966667 0
0.416662 0.0333336 0
0.416654 0.100001 0
0.416646 0.166668 0
0.416639 0.233334 0
0.416633 0.300001 0
0.416628 0.366667 0
0.416626 0.433334 0
0.416625 0.5 0
0.416626 0.566666 0
0.416628 0.633333 0
0.416633 0.699999 0
0.416639 0.766666 0
0.416646 0.833332 0
0.416654 0.899999 0
0.416662 0.966666 0
0.583326 0.033334 0
0.58331 0.100002 0
0.583296 0.166669 0
0.583284 0.233336 0
0.583273 0.300003 0
0.583266 0.366669 0
0.583261 0.433335 0
0.583259 0.5 0
0.583261 0.566665 0
0.583266 0.633331 0
0.583273 0.699997 0
0.583284 0.766664 0
0.583296 0.833331 0
0.58331 0.899998 0
0.583326 0.966666 0
0.749987 0.0333351 0
0.749961 0.100005 0
0.749937 0.166674 0
0.749915 0.233342 0
0.749898 0.300008 0
0.749884 0.366673 0
0.749876 0.433337 0
0.749874 0.5 0
0.749876 0.566663 0
0.749884 0.633327 0
0.749898 0.699992 0
0.749915 0.766658 0
0.749937 0.833326 0
0.749961 0.899995 0
0.749987 0.966665 0
0.916644 0.033338 0
0.916601 0.100013 0
0.91656 0.166686 0
0.916524 0.233356 0
0.916494 0.300021 0
0.916472 0.366683 0
0.916458 0.433342 0
0.916454 0.5 0
0.916458 0.566658 0
0.916472 0.633317 0
0.916494 0.699979 0
0.916524 0.766644 0
0.91656 0.833314 0
0.916601 0.899987 0
0.916644 0.966662 0
1.0833 0.0333461 0
1.08322 0.100036 0
1.08315 0.166719 0
1.08309 0.233394 0
1.08304 0.300058 0
1.08301 0.366712 0
1.08298 0.433358 0
1.08298 0.5 0
1.08298 0.566642 0
1.08301 0.633288 0
1.08304 0.699942 0
1.08309 0.766606 0
1.08315 0.833281 0
1.08322 0.899964 0
1.0833 0.966654 0
1.24994 0.0333682 0
1.24981 0.100098 0
1.2497 0.16681 0
1.24959 0.233497 0
1.24951 0.300156 0
1.24945 0.366788 0
1.24942 0.433399 0
1.2494 0.5 0
1.24942 0.566601 0
1.24945 0.633212 0
1.24951 0.699844 0
1.24959 0.766503 0
1.2497 0.83319 0
1.24981 0.899902 0
1.24994 0.966632 0
1.41656 0.0334298 0
1.41634 0.10027 0
1.41615 0.16706 0
1.41598 0.233778 0
1.41585 0.300419 0
1.41575 0.36699 0
1.41569 0.433509 0
1.41567 0.5 0
1.41569 0.566491 0
1.41575 0.63301 0
1.41585 0.699581 0
1.41598 0.766222 0
1.41615 0.83294 0
1.41634 0.89973 0
1.41656 0.96657 0
1.58313 0.0336075 0
1.58275 0.10076 0
1.58242 0.167751 0
1.58215 0.234537 0
1.58195 0.301115 0
1.58181 0.367517 0
1.58173 0.433791 0
1.58171 0.5 0
1.58173 0.566209 0
1.58181 0.632483 0
1.58195 0.698885 0
1.58215 0.765463 0
1.58242 0.832249 0
1.58275 0.89924 0
1.58313 0.966392 0
1.74959 0.0341677 0
1.74885 0.102235 0
1.74829 0.169714 0
1.74791 0.236575 0
1.74766 0.302905 0
1.74751 0.368829 0
1.74744 0.434482 0
1.74741 0.5 0
1.74744 0.565518 0
1.74751 0.631171 0
1.74766 0.697095 0
1.74791 0.763425 0
1.74829 0.830286 0
1.74885 0.897765 0
1.74959 0.965832 0
1.91555 0.0363295 0
1.91388 0.107253 0
1.91312 0.175401 0
1.91283 0.241837 0
1.91276 0.307169 0
1.91277 0.371793 0
1.9128 0.435995 0
1.91281 0.5 0
1.9128 0.564005 0
1.91277 0.628207 0
1.91276 0.692831 0
1.91283 0.758163 0
1.91312 0.824599 0
1.91388 0.892747 0
1.91555 0.963671 0
2.07838 0.0591504 0
2.07417 0.125973 0
2.07554 0.190391 0
2.07663 0.253364 0
2.07743 0.315525 0
2.07798 0.377223 0
2.07829 0.438667 0
2.0784 0.5 0
2.07829 0.561333 0
2.07798 0.622777 0
2.07743 0.684475 0
2.07663 0.746636 0
2.07554 0.809609 0
2.07417 0.874027 0
2.07838 0.94085 0
2.24384 0.096456 0
2.23911 0.153168 0
2.24152 0.210396 0
2.24318 0.267878 0
2.24431 0.325632 0
2.24503 0.383617 0
2.24544 0.441767 0
2.24557 0.5 0
2.24544 0.558233 0
2.24503 0.616383 0
2.24431 0.674368 0
2.24318 0.732122 0
2.24152 0.789604 0
2.23911 0.846832 0
2.24384 0.903544 0
2.41462 0.118677 0
2.41292 0.170231 0
2.41356 0.223198 0
2.41406 0.277268 0
2.41444 0.332207 0
2.4147 0.387788 0
2.41485 0.44379 0
2.4149 0.5 0
2.41485 0.55621 0
2.4147 0.612212 0
2.41444 0.667793 0
2.41406 0.722732 0
2.41356 0.776802 0
2.41292 0.829769 0
2.41462 0.881323 0
2.58538 0.118677 0
2.58708 0.170231 0
2.58644 0.223198 0
2.58594 0.277268 0
2.58556 0.332207 0
2.5853 0.387788 0
2.58515 0.44379 0
2.5851 0.5 0
2.58515 0.55621 0
2.5853 0.612212 0
2.58556 0.667793 0
2.58594 0.722732 0
2.58644 0.776802 0
2.58708 0.829769 0
2.58538 0.881323 0
2.75616 0.096456 0
2.76089 0.153168 0
2.75848 0.210396 0
2.75682 0.267878 0
2.75569 0.325632 0
2.75497 0.383617 0
2.75456 0.441767 0
2.75443 0.5 0
2.75456 0.558233 0
2.75497 0.616383 0
2.75569 0.674368 0
2.75682 0.732122 0
2.75848 0.789604 0
2.76089 0.846832 0
2.75616 0.903544 0
2.92162 0.0591504 0
2.92583 0.125973 0
2.92446 0.190391 0
2.92337 0.253364 0
2.92257 0.315525 0
2.92202 0.377223 0
2.92171 0.438667 0
2.9216 0.5 0
2.92171 0.561333 0
2.92202 0.622777 0
2.92257 0.684475 0
2.92337 0.746636 0
2.92446 0.809609 0
2.92583 0.874027 0
2.92162 0.94085 0
3.08445 0.0363295 0
3.08612 0.107253 0
3.08688 0.175401 0
3.08717 0.241837 0
3.08724 0.307169 0
3.08723 0.371793 0
3.0872 0.435995 0
3.08719 0.5 0
3.0872 0.564005 0
3.08723 0.628207 0
3.08724 0.692831 0
3.08717 0.758163 0
3.08688 0.824599 0
3.08612 0.892747 0
3.08445 0.963671 0
3.25041 0.0341677 0
3.25115 0.102235 0
3.25171 0.169714 0
3.25209 0.236575 0
3.25234 0.302905 0
3.25249 0.368829 0
3.25256 0.434482 0
3.25259 0.5 0
3.25256 0.565518 0
3.25249 0.631171 0
3.25234 0.697095 0
3.25209 0.763425 0
3.25171 0.830286 0
3.25115 0.897765 0
3.25041 0.965832 0
3.41687 0.0336075 0
3.41725 0.10076 0
3.41758 0.167751 0
3.41785 0.234537 0
3.41805 0.301115 0
3.41819 0.367517 0
3.41827 0.433791 0
3.41829 0.5 0
3.41827 0.566209 0
3.41819 0.632483 0
3.41805 0.698885 0
3.41785 0.765463 0
3.41758 0.832249 0
3.41725 0.89924 0
3.41687 0.966392 0
3.58344 0.0334298 0
3.58366 0.10027 0
3.58385 0.16706 0
3.58402 0.233778 0
3.58415 0.300419 0
3.58425 0.36699 0
3.58431 0.433509 0
3.58433 0.5 0
3.58431 0.566491 0
3.58425 0.63301 0
3.58415 0.699581 0
3.58402 0.766222 0
3.58385 0.83294 0
3.58366 0.89973 0
3.58344 0.96657 0
3.75006 0.0333682 0
3.75019 0.100098 0
3.7503 0.16681 0
3.75041 0.233497 0
3.75049 0.300156 0
3.75055 0.366788 0
3.75058 0.433399 0
3.7506 0.5 0
3.75058 0.566601 0
3.75055 0.633212 0
3.75049 0.699844 0
3.75041 0.766503 0
3.7503 0.83319 0
3.75019 0.899902 0
3.75006 0.966632 0
3.9167 0.0333461 0
3.91678 0.100036 0
3.91685 0.166719 0
3.91691 0.233394 0
3.91696 0.300058 0
3.91699 0.366712 0
3.91702 0.433358 0
3.91702 0.5 0
3.91702 0.566642 0
3.91699 0.633288 0
3.91696 0.699942 0
3.91691 0.766606 0
3.91685 0.833281 0
3.91678 0.899964 0
3.9167 0.966654 0
4.08336 0.033338 0
4.0834 0.100013 0
4.08344 0.166686 0
4.08348 0.233356 0
4.08351 0.300021 0
4.08353 0.366683 0
4.08354 0.433342 0
4.08355 0.5 0
4.08354 0.566658 0
4.08353 0.633317 0
4.08351 0.699979 0
4.08348 0.766644 0
4.08344 0.833314 0
4.0834 0.899987 0
4.08336 0.966662 0
4.25001 0.0333351 0
4.25004 0.100005 0
4.25006 0.166674 0
4.25008 0.233342 0
4.2501 0.300008 0
4.25012 0.366673 0
4.25012 0.433337 0
4.25013 0.5 0
4.25012 0.566663 0
4.25012 0.633327 0
4.2501 0.699992 0
4.25008 0.766658 0
4.25006 0.833326 0
4.25004 0.899995 0
4.25001 0.966665 0
4.41667 0.033334 0
4.41669 0.100002 0
4.4167 0.166669 0
4.41672 0.233336 0
4.41673 0.300003 0
4.41673 0.366669 0
4.41674 0.433335 0
4.41674 0.5 0
4.41674 0.566665 0
4.41673 0.633331 0
4.41673 0.699997 0
4.41672 0.766664 0
4.4167 0.833331 0
4.41669 0.899998 0
4.41667 0.966666 0
4.58334 0.0333336 0
4.58335 0.100001 0
4.58335 0.166668 0
4.58336 0.233334 0
4.58337 0.300001 0
4.58337 0.366667 0
4.58337 0.433334 0
4.58338 0.5 0
4.58337 0.566666 0
4.58337 0.633333 0
4.58337 0.699999 0
4.58336 0.766666 0
4.58335 0.833332 0
4.58335 0.899999 0
4.58334 0.966666 0
4.75 0.0333334 0
4.75001 0.1 0
4.75001 0.166667 0
4.75001 0.233334 0
4.75002 0.3 0
4.75002 0.366667 0
4.75002 0.433333 0
4.75002 0.5 0
4.75002 0.566667 0
4.75002 0.633333 0
4.75002 0.7 0
4.75001 0.766666 0
4.75001 0.833333 0
4.75001 0.9 0
4.75 0.966667 0
4.91667 0.0333334 0
4.91667 0.1 0
4.91667 0.166667 0
4.91667 0.233333 0
4.91667 0.3 0
4.91667 0.366667 0
4.91667 0.433333 0
4.91667 0.5 0
4.91667 0.566667 0
4.91667 0.633333 0
4.91667 0.7 0
4.91667 0.766667 0
4.91667 0.833333 0
4.91667 0.9 0
4.91667 0.966667 0
POINT_DATA 450
SCALARS pressure float 1
LOOKUP_TABLE default
94472.8
94472.8
94472.8
94472.8
94472.8
94472.8
94472.8
94472.8
94472.8
94472.8
94472.8
94472.8
94472.8
94472.8
94472.8
94206.2
94206.2
94206.2
94206.1
94206.2
94206.1
94206.2
94206.1
94206.2
94206.1
94206.2
94206
94206.1
94206.1
94206.1
94535
94535
94535
94535.1
94535.1
94535.1
94535.1
94535.1
94535.1
94535.1
94535
94535
94535
94535
94534.9
94137
94136.7
94136.9
94136.3
94136.7
94136
94136.5
94135.8
94136.4
94135.9
94136.5
94136.2
94136.7
94136.5
94136.7
94613.3
94613.2
94613.1
94612.8
94612.7
94612.3
94612.4
94612.1
94612.3
94612.3
94612.6
94612.7
94613
94613
94613.1
94051
94049.7
94049.9
94047.2
94047.9
94044.7
94046.3
94043.7
94046.2
94044.5
94047.5
94046.6
94049.3
94049
94050.3
94718.2
94717
94716.3
94713.7
94712.9
94710.3
94710.5
94708.9
94710.4
94710.2
94712.7
94713.4
94716
94716.6
94717.8
93950.2
93942.4
93942.3
93927.9
93929
93914.8
93919.6
93909.5
93919.2
93914.1
93927.9
93926.5
93940.6
93940.6
93948.3
94880.5
94868.7
94863.6
94845.8
94840.6
94825.3
94825.6
94817.2
94825.4
94824.7
94840
94844.7
94862.7
94867.4
94879.3
93907.2
93841.2
93835.3
93754.8
93750.5
93689.3
93699.4
93665.1
93698.3
93687.5
93747.4
93751.2
93830.6
93836.1
93901.7
95281.6
95140.1
95101.7
94990.7
94958.3
94887.4
94882.8
94850.8
94882.4
94885.2
94957.1
94986.8
95099.8
95135.1
95278.9
94573.7
93812.9
93770.7
93352.7
93301.7
93102.6
93095.6
93024
93093.3
93099.1
93294.3
93344.7
93757.9
93798.6
94555.1
96101.7
95460.1
95050.9
94756
94614
94480.4
94442.7
94402.7
94442.2
94474.7
94612.9
94742.8
95050.6
95435.3
96102.4
89134.9
90212.6
89828.1
90519
90314.5
90746.8
90554
90827.8
90553.7
90751.5
90313.8
90531.2
89827
90239.2
89126.8
90209.8
91519.3
91409.9
92232
92070.5
92592.1
92363.3
92702.3
92359.9
92595.1
92059.8
92239.2
91390.9
91532.8
90174
87371.9
88849.5
88627.8
89612.5
89372.4
90029.5
89716.8
90161
89709.9
90026
89350.6
89602.4
88587.5
88824.5
87297.5
91766.6
92526.8
92295.4
92847.9
92625.7
93036.3
92780.1
93098.1
92774.4
93039.5
92607.2
92853.4
92259.1
92530.2
91703.1
93241.7
92723.9
92592.6
92411.5
92287.6
92288.9
92170.2
92260.9
92167.4
92305.7
92278.9
92449.5
92574.9
92795.9
93236.5
96862
95830.6
95649.8
95164.2
95023.1
94822.4
94755.4
94720.8
94762
94835.1
95045
95189.9
95693.4
95869
96961.8
93013.3
93087.7
93062.5
93091.9
93061.2
93083.5
93050.9
93079.5
93049.9
93085
93057.9
93093.1
93056.2
93085.3
93004.6
95122.3
95040.4
95000.3
94906.8
94870.4
94810.5
94797.5
94778
94799.9
94815
94877.4
94914.7
95010.8
95050.4
95135.2
93518.6
93522.2
93520.5
93523.6
93520
93523.6
93518.9
93523.5
93518.7
93523.7
93519.5
93523.5
93519.8
93521.9
93518.3
94620.3
94613.2
94606.4
94592.6
94585.8
94574.4
94572.3
94567.7
94572.9
94575.5
94587.3
94594.4
94608.4
94615.1
94622.2
93782.1
93782.3
93782.4
93782.5
93782.3
93782.4
93782.1
93782.5
93782.2
93782.6
93782.5
93782.8
93782.7
93782.8
93782.7
94408.1
94407.2
94406
94403.9
94402.8
94400.8
94400.6
94399.6
94400.6
94400.9
94403
94404.1
94406.2
94407.2
94408.1
93923.7
93923.8
93923.9
93924
93924.1
93924
93924.2
93924.1
93924.3
93924.2
93924.3
93924.3
93924.3
93924.3
93924.3
94304.3
94304.1
94303.8
94303.3
94303.1
94302.6
94302.6
94302.4
94302.6
94302.6
94303
94303.2
94303.6
94303.8
94304
93995.2
93995.3
93995.4
93995.4
93995.5
93995.5
93995.6
93995.6
93995.7
93995.7
93995.7
93995.7
93995.8
93995.7
93995.7
94256
94256
94255.9
94255.7
94255.6
94255.5
94255.4
94255.3
94255.4
94255.4
94255.6
94255.6
94255.8
94255.8
94255.9
94024.8
94025
94025.2
94025.4
94025.6
94025.7
94025.8
94025.8
94025.9
94025.9
94025.9
94025.8
94025.7
94025.6
94025.5
SCALARS density float 1
LOOKUP_TABLE default
1.21459
1.21459
1.21459
1.21459
1.21459
1.21459
1.21459
1.21459
1.21459
1.21459
1.21459
1.21459
1.21459
1.21459
1.21459
1.21212
1.21212
1.21212
1.21212
1.21213
1.21213
1.21213
1.21213
1.21213
1.21213
1.21213
1.21213
1.21212
1.21212
1.21212
1.21514
1.21514
1.21514
1.21515
1.21515
1.21515
1.21515
1.21515
1.21515
1.21515
1.21515
1.21515
1.21515
1.21514
1.21514
1.21149
1.21149
1.21149
1.21149
1.21149
1.21149
1.21149
1.21149
1.21149
1.21149
1.21149
1.21149
1.21149
1.21149
1.21149
1.21586
1.21586
1.21586
1.21586
1.21586
1.21586
1.21586
1.21585
1.21586
1.21586
1.21586
1.21586
1.21586
1.21586
1.21586
1.21071
1.2107
1.21071
1.21068
1.21069
1.21066
1.21068
1.21066
1.21068
1.21066
1.21069
1.21068
1.2107
1.2107
1.21071
1.21681
1.2168
1.21679
1.21677
1.21677
1.21674
1.21674
1.21673
1.21674
1.21674
1.21676
1.21677
1.21679
1.2168
1.21681
1.20984
1.20978
1.20978
1.20964
1.20966
1.20953
1.20958
1.20948
1.20957
1.20952
1.20965
1.20963
1.20976
1.20976
1.20983
1.21817
1.21807
1.21804
1.21789
1.21785
1.21771
1.21772
1.21764
1.21771
1.21771
1.21785
1.21788
1.21803
1.21806
1.21816
1.2098
1.2092
1.20909
1.20832
1.20826
1.20769
1.20778
1.20746
1.20777
1.20767
1.20823
1.20829
1.20905
1.20915
1.20976
1.22087
1.2198
1.21963
1.21877
1.21856
1.21796
1.21794
1.21765
1.21794
1.21794
1.21855
1.21874
1.21962
1.21975
1.22086
1.2187
1.21073
1.20983
1.20555
1.20487
1.20285
1.20272
1.20201
1.2027
1.20281
1.20479
1.20546
1.2097
1.2106
1.21852
1.22568
1.22089
1.21786
1.21579
1.21475
1.21373
1.21346
1.21314
1.21346
1.21368
1.21475
1.21569
1.21788
1.22063
1.22568
1.16443
1.17507
1.17118
1.17779
1.17588
1.18
1.17819
1.18078
1.17819
1.18005
1.17588
1.1779
1.17116
1.17545
1.16499
1.17547
1.18818
1.18667
1.19424
1.19259
1.19743
1.19525
1.19841
1.19521
1.19746
1.19249
1.1943
1.1865
1.18853
1.17567
1.14719
1.16161
1.15949
1.16875
1.16651
1.17271
1.16983
1.17398
1.16977
1.17268
1.1663
1.16863
1.15914
1.16162
1.14701
1.18884
1.19645
1.19459
1.19968
1.19773
1.20148
1.19919
1.20207
1.19914
1.20151
1.19755
1.19971
1.19428
1.19673
1.18918
1.20182
1.19785
1.19694
1.19507
1.19393
1.19387
1.19285
1.19363
1.19283
1.19403
1.19385
1.19538
1.1968
1.19895
1.2031
1.23291
1.22537
1.22461
1.22043
1.21921
1.21744
1.2169
1.21658
1.21696
1.21755
1.21938
1.22059
1.22504
1.22621
1.23505
1.19883
1.20036
1.20087
1.20136
1.20111
1.20133
1.20108
1.20135
1.20107
1.20134
1.20104
1.2013
1.20089
1.20087
1.19984
1.2183
1.21826
1.21863
1.21807
1.21778
1.21725
1.21717
1.21701
1.2172
1.21728
1.21779
1.21807
1.21883
1.21892
1.21948
1.20373
1.20436
1.20502
1.20537
1.20539
1.20543
1.20542
1.20548
1.20542
1.20542
1.20533
1.20531
1.20515
1.20494
1.20473
1.21389
1.21437
1.21497
1.21519
1.2152
1.21511
1.21511
1.21508
1.21511
1.21509
1.21515
1.21515
1.21514
1.21499
1.21488
1.20626
1.20676
1.20738
1.20775
1.20784
1.20785
1.20786
1.20788
1.20786
1.20783
1.20778
1.20771
1.20756
1.20736
1.2072
1.21202
1.21248
1.21306
1.21342
1.21353
1.21352
1.21353
1.21353
1.21352
1.21349
1.21346
1.21339
1.21327
1.21308
1.21294
1.20765
1.20809
1.20866
1.20905
1.20919
1.20921
1.20921
1.20921
1.2092
1.20917
1.20912
1.20903
1.20889
1.20869
1.20856
1.21106
1.21147
1.21201
1.2124
1.21255
1.21256
1.21256
1.21256
1.21255
1.21252
1.21247
1.21239
1.21224
1.21206
1.21193
1.20852
1.20891
1.20945
1.20985
1.21002
1.21005
1.21005
1.21004
1.21003
1.21
1.20995
1.20986
1.2097
1.20952
1.20939
1.21028
1.21064
1.21115
1.21154
1.21172
1.21175
1.21175
1.21174
1.21173
1.2117
1.21165
1.21156
1.21141
1.21124
1.21112
1.20965
1.21
1.21051
1.2109
1.2111
1.21114
1.21113
1.21112
1.21111
1.21108
1.21103
1.21093
1.21078
1.21061
1.21049
SCALARS u-velocity float 1
LOOKUP_TABLE default
99.5968
99.5975
99.5984
99.5998
99.6005
99.6018
99.602
99.6027
99.6023
99.6023
99.6014
99.6008
99.5996
99.5989
99.5982
98.7383
98.738
98.7377
98.7374
98.7372
98.737
98.737
98.7371
98.7372
98.7373
98.7375
98.7379
98.7383
98.7387
98.739
99.6994
99.7014
99.7036
99.7072
99.7089
99.7119
99.7122
99.7139
99.7127
99.7128
99.7103
99.7089
99.7056
99.7037
99.7018
98.6092
98.607
98.604
98.6011
98.5992
98.5979
98.5973
98.5972
98.5975
98.5982
98.5995
98.6015
98.6043
98.6073
98.6095
99.841
99.8499
99.859
99.8734
99.8798
99.8909
99.8918
99.8977
99.8928
99.8928
99.8827
99.877
99.8634
99.8549
99.8464
98.4283
98.4178
98.4045
98.3953
98.3898
98.3887
98.3873
98.3885
98.3875
98.3893
98.3905
98.3962
98.405
98.4179
98.428
99.9688
100.015
100.057
100.118
100.144
100.188
100.192
100.213
100.194
100.192
100.15
100.126
100.067
100.028
99.9833
98.1787
98.131
98.0932
98.0886
98.0919
98.1139
98.1196
98.1346
98.1208
98.1168
98.0951
98.0933
98.0961
98.1318
98.1761
99.7853
100.075
100.231
100.494
100.601
100.772
100.798
100.864
100.803
100.781
100.616
100.511
100.255
100.108
99.8281
97.446
97.3369
97.453
97.6626
97.8102
98.032
98.1165
98.2094
98.122
98.0449
97.8236
97.6859
97.472
97.3507
97.4295
97.8101
99.6652
100.014
101.225
101.723
102.273
102.458
102.593
102.467
102.288
101.754
101.259
100.059
99.7249
97.9498
89.6067
94.6049
96.4238
98.2278
99.2467
100.394
100.81
101.122
100.826
100.432
99.2878
98.3003
96.5012
94.7582
89.528
90.0027
94.2066
101.737
104.029
106.533
106.986
108.03
107.779
108.046
107.018
106.588
104.122
101.866
94.2758
90.2834
123.813
120.3
120.883
119.447
119.759
118.284
118.684
117.82
118.685
118.258
119.765
119.375
120.831
120.353
124.985
134.83
130.577
127.565
124.975
123.931
122.166
121.981
121.206
121.998
122.185
123.977
124.975
127.636
131.038
136
137
133.26
130.023
127.581
126.38
124.925
124.551
123.996
124.582
124.978
126.468
127.674
130.263
133.893
138.146
117.888
120.317
118.2
118.468
117.438
117.545
116.817
117.061
116.839
117.547
117.483
118.419
118.336
120.852
120.137
89.3304
101.722
102.68
106.318
106.58
108.686
108.3
109.248
108.267
108.616
106.435
106.029
102.394
102.32
92.183
79.2921
90.73
95.7015
99.1549
100.366
102.138
102.298
102.956
102.255
102.08
100.147
98.8838
95.481
91.7897
81.7113
96.1398
98.7947
102.031
103.027
103.461
103.956
104.031
104.265
104.027
103.94
103.345
102.862
102.168
100.071
98.6667
91.181
93.9153
97.0401
98.5969
99.158
99.6882
99.8438
100.059
99.8353
99.6478
98.9965
98.4068
97.2284
95.2217
93.5917
95.9992
98.0355
100.585
101.807
102.191
102.346
102.44
102.512
102.445
102.313
102.055
101.675
100.9
99.388
98.3215
93.5188
95.4683
97.8923
99.2754
99.7341
99.8951
99.9801
100.047
99.9794
99.8432
99.5779
99.1542
98.2622
96.8448
95.7883
95.6712
97.4405
99.6744
101.045
101.523
101.625
101.678
101.71
101.675
101.564
101.368
100.959
100.103
98.821
97.8611
94.4241
96.0992
98.2536
99.6803
100.222
100.338
100.374
100.398
100.365
100.262
100.06
99.6173
98.7275
97.4937
96.5742
95.4953
97.0604
99.1152
100.551
101.139
101.262
101.283
101.292
101.265
101.175
100.977
100.515
99.6254
98.4494
97.5846
94.9401
96.4267
98.4181
99.8754
100.515
100.66
100.671
100.67
100.645
100.56
100.353
99.8646
98.963
97.8205
96.994
95.4292
96.8366
98.7572
100.217
100.897
101.064
101.068
101.058
101.033
100.953
100.738
100.231
99.3288
98.2238
97.4371
95.2895
96.6326
98.4971
99.9622
100.682
100.872
100.873
100.854
100.829
100.751
100.525
99.9986
99.0941
98.0179
97.2636
95.4191
96.703
98.5116
99.9732
100.725
100.939
100.941
100.915
100.889
100.81
100.573
100.032
99.1295
98.082
97.3578
SCALARS v-velocity float 1
LOOKUP_TABLE default
-0.000375277
-0.000746984
-0.00121729
-0.00121761
-0.0012315
-0.000925313
-0.000627988
-0.000218208
0.000201697
0.000523731
0.000872865
0.000916645
0.000988381
0.000604358
0.000325719
0.000674007
0.00123329
0.00211516
0.0020724
0.00216118
0.00161402
0.00112416
0.000404111
-0.000334576
-0.00087147
-0.00149908
-0.00151788
-0.00169426
-0.000971029
-0.000583264
-0.000866182
-0.00201014
-0.00289948
-0.00292588
-0.00266756
-0.00194013
-0.00110115
-0.000126812
0.000857381
0.00169838
0.00244297
0.00272209
0.00272899
0.0018999
0.000822151
0.00314469
0.00572429
0.00953838
0.00918044
0.00932291
0.00681022
0.00450018
0.00126821
-0.00202731
-0.00447131
-0.00722844
-0.00740717
-0.00817096
-0.00486477
-0.00283968
-0.00267986
-0.00641838
-0.00814671
-0.0077129
-0.00621709
-0.00430535
-0.00211822
-1.37392e-05
0.00212358
0.004232
0.00610715
0.00752257
0.00789288
0.00622819
0.00256971
0.0146166
0.0266067
0.0418445
0.0401803
0.0392109
0.0285096
0.0174666
0.0033555
-0.0109581
-0.0222715
-0.0335894
-0.0353149
-0.0379508
-0.0240936
-0.013668
-0.00609389
-0.011115
-0.00674868
-0.00219263
0.00362016
0.00428801
0.00416236
0.00074283
-0.00248292
-0.00315422
-0.0027427
0.00243183
0.00628422
0.0105617
0.00556224
0.0733425
0.119243
0.174927
0.171474
0.158655
0.117119
0.0661047
0.00823734
-0.0503496
-0.101561
-0.144586
-0.158876
-0.164149
-0.111675
-0.0699748
0.015143
0.0946429
0.166921
0.183136
0.189202
0.144856
0.0860526
0.00477741
-0.0751953
-0.136948
-0.182004
-0.179112
-0.16654
-0.0967188
-0.0191794
0.377055
0.509343
0.6938
0.73299
0.603591
0.469125
0.239156
0.0182681
-0.205586
-0.433916
-0.572212
-0.703471
-0.667948
-0.486927
-0.360781
1.11449
1.72028
2.02104
1.91438
1.67633
1.20045
0.644641
0.0211964
-0.59443
-1.16218
-1.63531
-1.88751
-1.99765
-1.71724
-1.14542
-0.314434
3.35813
2.50736
3.06943
2.02445
1.69631
0.765023
0.0353946
-0.705368
-1.62853
-1.97147
-3.0116
-2.47839
-3.33709
0.352227
23.1015
19.9518
15.994
12.9219
9.06218
6.13687
2.95645
0.066558
-2.79572
-6.00086
-8.88065
-12.7849
-15.7689
-19.779
-22.8727
25.1273
16.065
13.1678
8.69134
6.62478
3.84375
2.04769
0.075247
-1.90661
-3.69022
-6.48411
-8.52182
-13.0003
-15.8667
-25.2967
11.4079
7.10022
6.75482
4.15968
3.728
2.00339
1.21562
0.0685544
-1.1313
-1.87213
-3.67127
-4.03996
-6.75314
-7.06402
-11.6397
-8.23286
-8.56828
-4.6969
-4.81251
-2.38994
-2.10674
-0.68542
0.126037
0.864573
2.36084
2.57346
5.07814
4.8995
8.85659
8.46353
-20.86
-18.1311
-12.1371
-10.0841
-6.22904
-4.40825
-1.8462
0.155815
2.06908
4.74319
6.48506
10.4987
12.5121
18.7965
21.5354
-23.3207
-18.4082
-14.4348
-10.8754
-7.84795
-4.97681
-2.41906
0.188213
2.61558
5.3766
8.04726
11.3629
14.6747
19.1745
23.9035
-2.47008
-0.486543
-2.21435
-1.30804
-1.73339
-0.899277
-0.613138
0.0442321
0.636835
0.973509
1.73637
1.35648
2.18505
0.421117
2.33096
-1.91069
-2.21759
-2.69772
-2.20467
-2.03798
-1.28568
-0.706136
0.0564904
0.772384
1.38785
2.09826
2.29112
2.73456
2.17627
1.88809
-0.198807
-0.271647
-0.37192
-0.205923
-0.336168
-0.168033
-0.130445
0.0105907
0.135648
0.185168
0.347252
0.227624
0.372174
0.225952
0.17294
-0.177243
-0.366201
-0.433414
-0.343356
-0.370177
-0.243262
-0.144478
0.0118546
0.159162
0.264703
0.390541
0.365013
0.429234
0.321733
0.153363
-0.0394259
-0.106326
-0.0775189
-0.0231721
-0.0464732
-0.0307839
-0.0259598
0.00220292
0.0277526
0.0377833
0.0590238
0.0371024
0.0720651
0.0750219
0.0213972
-0.0453127
-0.109899
-0.0909776
-0.0472935
-0.0493054
-0.0402644
-0.0280327
0.000340331
0.0279845
0.0448821
0.0590883
0.0546304
0.0780659
0.0768329
0.0273009
-0.0263137
-0.0598561
-0.0317623
0.00461407
0.00718492
-0.000556548
-0.00517222
-0.000387107
0.00512834
0.00553948
0.00344162
0.00325677
0.0222542
0.0348858
0.0125533
-0.02786
-0.0606236
-0.039838
-0.00644507
0.00221971
-0.00354428
-0.0069687
-0.0023012
0.00373425
0.00540874
0.00428582
0.00849018
0.0254208
0.0344237
0.014322
-0.0215996
-0.0448281
-0.0253683
0.00432394
0.0139161
0.00665168
-0.000495495
-0.00132157
-0.000352801
-0.00230514
-0.00549606
-0.000718073
0.0142304
0.0238004
0.0107251
-0.0216666
-0.0456359
-0.0308997
-0.00346461
0.00841994
0.00390943
-0.00214957
-0.00281209
-0.00146206
-0.00242717
-0.00372628
0.00266309
0.0166136
0.0238953
0.0109771
-0.0181243
-0.0377278
-0.0247944
-4.00438e-05
0.0119092
0.00807049
0.00100621
-0.001927
-0.00270681
-0.00479357
-0.0060287
0.000279785
0.0128232
0.0193679
0.00913503
-0.018666
-0.0397551
-0.0292348
-0.00531208
0.008037
0.00618916
4.96875e-05
-0.00274022
-0.00331519
-0.00462514
-0.00446147
0.00279138
0.0150383
0.0203755
0.00947018
SCALARS Mach float 1
LOOKUP_TABLE default
30.0599
30.0603
30.0609
30.0617
30.0622
30.0629
30.0631
30.0635
30.0633
30.0633
30.0627
30.0624
30.0616
30.0612
30.0608
29.5557
29.5555
29.5553
29.5551
29.555
29.555
29.555
29.555
29.5551
29.5552
29.5553
29.5555
29.5557
29.5559
29.5561
30.1189
30.1201
30.1214
30.1236
30.1246
30.1265
30.1266
30.1277
30.1269
30.127
30.1255
30.1246
30.1226
30.1215
30.1203
29.4816
29.4803
29.4785
29.4768
29.4756
29.4749
29.4746
29.4745
29.4747
29.4751
29.4758
29.477
29.4787
29.4805
29.4818
30.2009
30.2063
30.2118
30.2205
30.2244
30.2312
30.2317
30.2353
30.2323
30.2324
30.2262
30.2228
30.2145
30.2094
30.2042
29.3775
29.3713
29.3634
29.358
29.3547
29.3542
29.3533
29.3542
29.3535
29.3546
29.3552
29.3586
29.3637
29.3714
29.3774
30.2733
30.3016
30.3267
30.364
30.3796
30.4064
30.409
30.4218
30.4104
30.409
30.3836
30.3691
30.3332
30.3094
30.2821
29.2338
29.2059
29.1835
29.1814
29.1833
29.197
29.2002
29.2096
29.201
29.1988
29.1853
29.1843
29.1853
29.2065
29.2324
30.1533
30.3295
30.4243
30.5851
30.6509
30.7557
30.7717
30.8123
30.7746
30.7613
30.6599
30.5958
30.4391
30.3492
30.1793
28.8057
28.7445
28.8134
28.9408
29.0278
29.1618
29.2111
29.2677
29.2144
29.1695
29.0358
28.9547
28.8248
28.7529
28.7962
28.9461
30.0687
30.2871
31.0305
31.3367
31.6757
31.7882
31.8725
31.7935
31.6852
31.3551
31.0509
30.3139
30.1049
29.0294
24.3605
27.2084
28.2441
29.3331
29.9277
30.6267
30.8735
31.066
30.8829
30.6495
29.9521
29.3754
28.2894
27.2967
24.3184
26.0603
28.0273
32.0862
33.2672
34.6179
34.7863
35.3814
35.1936
35.3893
34.8022
34.6441
33.3162
32.1441
28.0466
26.1812
48.7559
44.9305
45.1229
43.7261
43.8711
42.6847
42.9544
42.3009
42.9529
42.6625
43.8707
43.6643
45.071
44.951
49.6875
55.858
52.076
49.6919
47.552
46.7596
45.3727
45.2423
44.6417
45.2545
45.3851
46.7945
47.5484
49.7481
52.4457
56.8573
57.6861
54.4914
51.7478
49.7507
48.7852
47.6169
47.3442
46.8895
47.3693
47.6614
48.8576
49.8316
51.949
55.0316
58.6843
43.5997
44.9938
42.9285
42.9457
42.0323
42.0233
41.4741
41.6153
41.4924
42.0332
42.0759
42.9353
43.0573
45.4653
45.3375
25.8632
32.4613
32.6707
34.7142
34.7182
35.983
35.6788
36.2821
35.6599
35.9484
34.6341
34.5578
32.5146
32.9219
27.5332
18.976
24.8789
27.7117
29.7618
30.5042
31.5945
31.6965
32.1059
31.6697
31.5588
30.3702
29.5976
27.5824
25.4669
20.1556
28.0557
29.6368
31.6274
32.242
32.5135
32.8167
32.8627
33.008
32.8611
32.8074
32.4413
32.1389
31.7143
30.4133
29.5629
25.1468
26.6887
28.5049
29.4342
29.7725
30.0944
30.1896
30.3209
30.1844
30.0698
29.6747
29.3196
28.6164
27.4423
26.5051
27.944
29.1494
30.6942
31.4485
31.687
31.783
31.8419
31.8862
31.8447
31.7624
31.6019
31.3658
30.8886
29.9664
29.3245
26.4747
27.5966
29.0238
29.8547
30.1325
30.2304
30.2822
30.3231
30.2819
30.1987
30.0373
29.7811
29.2455
28.405
27.7863
27.7433
28.7849
30.1276
30.9668
31.2614
31.3244
31.3572
31.3774
31.3555
31.2866
31.1651
30.9131
30.3893
29.6136
29.0392
26.9992
27.9711
29.2466
30.1069
30.4366
30.5072
30.5295
30.544
30.5234
30.4608
30.3374
30.0684
29.5318
28.7959
28.2535
27.6365
28.555
29.7839
30.658
31.0192
31.0952
31.1077
31.1136
31.097
31.041
30.919
30.6359
30.094
29.3854
28.8698
27.2993
28.1657
29.3478
30.2282
30.6185
30.7072
30.7136
30.7133
30.6976
30.6457
30.5187
30.2215
29.6765
28.993
28.5036
27.5977
28.4223
29.5675
30.4532
30.8702
30.9725
30.9751
30.9687
30.9536
30.9042
30.7716
30.4614
29.9138
29.2497
28.7816
27.4988
28.2838
29.3919
30.2777
30.7175
30.834
30.8345
30.8228
30.8075
30.7595
30.6209
30.2999
29.7525
29.1077
28.66
27.6004
28.3523
29.4287
30.3135
30.7735
30.9051
30.9063
30.8902
30.8738
30.8252
30.6798
30.3491
29.8023
29.1738
28.7432
