# vtk DataFile Version 3.0
Structured Grid Example
ASCII
DATASET STRUCTURED_GRID
DIMENSIONS 15 30 1
POINTS 450 FLOAT
0.0833327 0.0333334 0
0.0833313 0.1 0
0.0833301 0.166667 0
0.083329 0.233333 0
0.0833281 0.3 0
0.0833274 0.366667 0
0.083327 0.433333 0
0.0833268 0.5 0
0.083327 0.566667 0
0.0833274 0.633333 0
0.0833281 0.7 0
0.083329 0.766667 0
0.0833301 0.833333 0
0.0833313 0.9 0
0.0833327 0.966667 0
0.249998 0.0333334 0
0.249993 0.1 0
0.249989 0.166667 0
0.249986 0.233334 0
0.249983 0.3 0
0.24998 0.366667 0
0.249979 0.433333 0
0.249979 0.5 0
0.249979 0.566667 0
0.24998 0.633333 0
0.249983 0.7 0
0.249986 0.766666 0
0.249989 0.833333 0
0.249993 0.9 0
0.249998 0.966667 0
0.416662 0.0333336 0
0.416654 0.100001 0
0.416646 0.166668 0
0.416639 0.233334 0
0.416633 0.300001 0
0.416628 0.366667 0
0.416626 0.433334 0
0.416625 0.5 0
0.416626 0.566666 0
0.416628 0.633333 0
0.416633 0.699999 0
0.416639 0.766666 0
0.416646 0.833332 0
0.416654 0.899999 0
0.416662 0.966666 0
0.583326 0.033334 0
0.58331 0.100002 0
0.583296 0.166669 0
0.583284 0.233336 0
0.583273 0.300003 0
0.583266 0.366669 0
0.583261 0.433335 0
0.583259 0.5 0
0.583261 0.566665 0
0.583266 0.633331 0
0.583273 0.699997 0
0.583284 0.766664 0
0.583296 0.833331 0
0.58331 0.899998 0
0.583326 0.966666 0
0.749987 0.0333351 0
0.749961 0.100005 0
0.749937 0.166674 0
0.749915 0.233342 0
0.749898 0.300008 0
0.749884 0.366673 0
0.749876 0.433337 0
0.749874 0.5 0
0.749876 0.566663 0
0.749884 0.633327 0
0.749898 0.699992 0
0.749915 0.766658 0
0.749937 0.833326 0
0.749961 0.899995 0
0.749987 0.966665 0
0.916644 0.033338 0
0.916601 0.100013 0
0.91656 0.166686 0
0.916524 0.233356 0
0.916494 0.300021 0
0.916472 0.366683 0
0.916458 0.433342 0
0.916454 0.5 0
0.916458 0.566658 0
0.916472 0.633317 0
0.916494 0.699979 0
0.916524 0.766644 0
0.91656 0.833314 0
0.916601 0.899987 0
0.916644 0.966662 0
1.0833 0.0333461 0
1.08322 0.100036 0
1.08315 0.166719 0
1.08309 0.233394 0
1.08304 0.300058 0
1.08301 0.366712 0
1.08298 0.433358 0
1.08298 0.5 0
1.08298 0.566642 0
1.08301 0.633288 0
1.08304 0.699942 0
1.08309 0.766606 0
1.08315 0.833281 0
1.08322 0.899964 0
1.0833 0.966654 0
1.24994 0.0333682 0
1.24981 0.100098 0
1.2497 0.16681 0
1.24959 0.233497 0
1.24951 0.300156 0
1.24945 0.366788 0
1.24942 0.433399 0
1.2494 0.5 0
1.24942 0.566601 0
1.24945 0.633212 0
1.24951 0.699844 0
1.24959 0.766503 0
1.2497 0.83319 0
1.24981 0.899902 0
1.24994 0.966632 0
1.41656 0.0334298 0
1.41634 0.10027 0
1.41615 0.16706 0
1.41598 0.233778 0
1.41585 0.300419 0
1.41575 0.36699 0
1.41569 0.433509 0
1.41567 0.5 0
1.41569 0.566491 0
1.41575 0.63301 0
1.41585 0.699581 0
1.41598 0.766222 0
1.41615 0.83294 0
1.41634 0.89973 0
1.41656 0.96657 0
1.58313 0.0336075 0
1.58275 0.10076 0
1.58242 0.167751 0
1.58215 0.234537 0
1.58195 0.301115 0
1.58181 0.367517 0
1.58173 0.433791 0
1.58171 0.5 0
1.58173 0.566209 0
1.58181 0.632483 0
1.58195 0.698885 0
1.58215 0.765463 0
1.58242 0.832249 0
1.58275 0.89924 0
1.58313 0.966392 0
1.74959 0.0341677 0
1.74885 0.102235 0
1.74829 0.169714 0
1.74791 0.236575 0
1.74766 0.302905 0
1.74751 0.368829 0
1.74744 0.434482 0
1.74741 0.5 0
1.74744 0.565518 0
1.74751 0.631171 0
1.74766 0.697095 0
1.74791 0.763425 0
1.74829 0.830286 0
1.74885 0.897765 0
1.74959 0.965832 0
1.91555 0.0363295 0
1.91388 0.107253 0
1.91312 0.175401 0
1.91283 0.241837 0
1.91276 0.307169 0
1.91277 0.371793 0
1.9128 0.435995 0
1.91281 0.5 0
1.9128 0.564005 0
1.91277 0.628207 0
1.91276 0.692831 0
1.91283 0.758163 0
1.91312 0.824599 0
1.91388 0.892747 0
1.91555 0.963671 0
2.07838 0.0591504 0
2.07417 0.125973 0
2.07554 0.190391 0
2.07663 0.253364 0
2.07743 0.315525 0
2.07798 0.377223 0
2.07829 0.438667 0
2.0784 0.5 0
2.07829 0.561333 0
2.07798 0.622777 0
2.07743 0.684475 0
2.07663 0.746636 0
2.07554 0.809609 0
2.07417 0.874027 0
2.07838 0.94085 0
2.24384 0.096456 0
2.23911 0.153168 0
2.24152 0.210396 0
2.24318 0.267878 0
2.24431 0.325632 0
2.24503 0.383617 0
2.24544 0.441767 0
2.24557 0.5 0
2.24544 0.558233 0
2.24503 0.616383 0
2.24431 0.674368 0
2.24318 0.732122 0
2.24152 0.789604 0
2.23911 0.846832 0
2.24384 0.903544 0
2.41462 0.118677 0
2.41292 0.170231 0
2.41356 0.223198 0
2.41406 0.277268 0
2.41444 0.332207 0
2.4147 0.387788 0
2.41485 0.44379 0
2.4149 0.5 0
2.41485 0.55621 0
2.4147 0.612212 0
2.41444 0.667793 0
2.41406 0.722732 0
2.41356 0.776802 0
2.41292 0.829769 0
2.41462 0.881323 0
2.58538 0.118677 0
2.58708 0.170231 0
2.58644 0.223198 0
2.58594 0.277268 0
2.58556 0.332207 0
2.5853 0.387788 0
2.58515 0.44379 0
2.5851 0.5 0
2.58515 0.55621 0
2.5853 0.612212 0
2.58556 0.667793 0
2.58594 0.722732 0
2.58644 0.776802 0
2.58708 0.829769 0
2.58538 0.881323 0
2.75616 0.096456 0
2.76089 0.153168 0
2.75848 0.210396 0
2.75682 0.267878 0
2.75569 0.325632 0
2.75497 0.383617 0
2.75456 0.441767 0
2.75443 0.5 0
2.75456 0.558233 0
2.75497 0.616383 0
2.75569 0.674368 0
2.75682 0.732122 0
2.75848 0.789604 0
2.76089 0.846832 0
2.75616 0.903544 0
2.92162 0.0591504 0
2.92583 0.125973 0
2.92446 0.190391 0
2.92337 0.253364 0
2.92257 0.315525 0
2.92202 0.377223 0
2.92171 0.438667 0
2.9216 0.5 0
2.92171 0.561333 0
2.92202 0.622777 0
2.92257 0.684475 0
2.92337 0.746636 0
2.92446 0.809609 0
2.92583 0.874027 0
2.92162 0.94085 0
3.08445 0.0363295 0
3.08612 0.107253 0
3.08688 0.175401 0
3.08717 0.241837 0
3.08724 0.307169 0
3.08723 0.371793 0
3.0872 0.435995 0
3.08719 0.5 0
3.0872 0.564005 0
3.08723 0.628207 0
3.08724 0.692831 0
3.08717 0.758163 0
3.08688 0.824599 0
3.08612 0.892747 0
3.08445 0.963671 0
3.25041 0.0341677 0
3.25115 0.102235 0
3.25171 0.169714 0
3.25209 0.236575 0
3.25234 0.302905 0
3.25249 0.368829 0
3.25256 0.434482 0
3.25259 0.5 0
3.25256 0.565518 0
3.25249 0.631171 0
3.25234 0.697095 0
3.25209 0.763425 0
3.25171 0.830286 0
3.25115 0.897765 0
3.25041 0.965832 0
3.41687 0.0336075 0
3.41725 0.10076 0
3.41758 0.167751 0
3.41785 0.234537 0
3.41805 0.301115 0
3.41819 0.367517 0
3.41827 0.433791 0
3.41829 0.5 0
3.41827 0.566209 0
3.41819 0.632483 0
3.41805 0.698885 0
3.41785 0.765463 0
3.41758 0.832249 0
3.41725 0.89924 0
3.41687 0.966392 0
3.58344 0.0334298 0
3.58366 0.10027 0
3.58385 0.16706 0
3.58402 0.233778 0
3.58415 0.300419 0
3.58425 0.36699 0
3.58431 0.433509 0
3.58433 0.5 0
3.58431 0.566491 0
3.58425 0.63301 0
3.58415 0.699581 0
3.58402 0.766222 0
3.58385 0.83294 0
3.58366 0.89973 0
3.58344 0.96657 0
3.75006 0.0333682 0
3.75019 0.100098 0
3.7503 0.16681 0
3.75041 0.233497 0
3.75049 0.300156 0
3.75055 0.366788 0
3.75058 0.433399 0
3.7506 0.5 0
3.75058 0.566601 0
3.75055 0.633212 0
3.75049 0.699844 0
3.75041 0.766503 0
3.7503 0.83319 0
3.75019 0.899902 0
3.75006 0.966632 0
3.9167 0.0333461 0
3.91678 0.100036 0
3.91685 0.166719 0
3.91691 0.233394 0
3.91696 0.300058 0
3.91699 0.366712 0
3.91702 0.433358 0
3.91702 0.5 0
3.91702 0.566642 0
3.91699 0.633288 0
3.91696 0.699942 0
3.91691 0.766606 0
3.91685 0.833281 0
3.91678 0.899964 0
3.9167 0.966654 0
4.08336 0.033338 0
4.0834 0.100013 0
4.08344 0.166686 0
4.08348 0.233356 0
4.08351 0.300021 0
4.08353 0.366683 0
4.08354 0.433342 0
4.08355 0.5 0
4.08354 0.566658 0
4.08353 0.633317 0
4.08351 0.699979 0
4.08348 0.766644 0
4.08344 0.833314 0
4.0834 0.899987 0
4.08336 0.966662 0
4.25001 0.0333351 0
4.25004 0.100005 0
4.25006 0.166674 0
4.25008 0.233342 0
4.2501 0.300008 0
4.25012 0.366673 0
4.25012 0.433337 0
4.25013 0.5 0
4.25012 0.566663 0
4.25012 0.633327 0
4.2501 0.699992 0
4.25008 0.766658 0
4.25006 0.833326 0
4.25004 0.899995 0
4.25001 0.966665 0
4.41667 0.033334 0
4.41669 0.100002 0
4.4167 0.166669 0
4.41672 0.233336 0
4.41673 0.300003 0
4.41673 0.366669 0
4.41674 0.433335 0
4.41674 0.5 0
4.41674 0.566665 0
4.41673 0.633331 0
4.41673 0.699997 0
4.41672 0.766664 0
4.4167 0.833331 0
4.41669 0.899998 0
4.41667 0.966666 0
4.58334 0.0333336 0
4.58335 0.100001 0
4.58335 0.166668 0
4.58336 0.233334 0
4.58337 0.300001 0
4.58337 0.366667 0
4.58337 0.433334 0
4.58338 0.5 0
4.58337 0.566666 0
4.58337 0.633333 0
4.58337 0.699999 0
4.58336 0.766666 0
4.58335 0.833332 0
4.58335 0.899999 0
4.58334 0.966666 0
4.75 0.0333334 0
4.75001 0.1 0
4.75001 0.166667 0
4.75001 0.233334 0
4.75002 0.3 0
4.75002 0.366667 0
4.75002 0.433333 0
4.75002 0.5 0
4.75002 0.566667 0
4.75002 0.633333 0
4.75002 0.7 0
4.75001 0.766666 0
4.75001 0.833333 0
4.75001 0.9 0
4.75 0.966667 0
4.91667 0.0333334 0
4.91667 0.1 0
4.91667 0.166667 0
4.91667 0.233333 0
4.91667 0.3 0
4.91667 0.366667 0
4.91667 0.433333 0
4.91667 0.5 0
4.91667 0.566667 0
4.91667 0.633333 0
4.91667 0.7 0
4.91667 0.766667 0
4.91667 0.833333 0
4.91667 0.9 0
4.91667 0.966667 0
POINT_DATA 450
SCALARS pressure float 1
LOOKUP_TABLE default
81407.6
81407.6
81407.6
81407.6
81407.6
81407.6
81407.6
81407.6
81407.5
81407.5
81407.5
81407.5
81407.5
81407.5
81407.4
79415
79415
79415
79415
79414.9
79414.9
79414.9
79414.8
79414.8
79414.8
79414.8
79414.8
79414.8
79414.8
79414.8
79489
79489
79488.9
79488.8
79488.7
79488.6
79488.6
79488.5
79488.5
79488.5
79488.5
79488.5
79488.5
79488.5
79488.6
79832.2
79832.1
79831.9
79831.7
79831.5
79831.3
79831.1
79831
79830.9
79830.9
79831
79831.1
79831.3
79831.3
79831.5
79822.1
79821.7
79821.4
79820.8
79820.2
79819.7
79819.2
79819
79818.9
79819.1
79819.4
79819.8
79820.2
79820.4
79820.7
79765.7
79764.6
79763.5
79761.8
79760.1
79758.6
79757.5
79756.9
79756.9
79757.6
79758.6
79759.9
79761.3
79762.2
79763.2
79778.8
79776
79772.4
79767.5
79762.6
79758.2
79755.2
79753.8
79754.2
79756.4
79759.9
79764.2
79768.5
79771.7
79774.3
79802.1
79793.1
79782.7
79769.5
79756.4
79745.4
79737.8
79734.6
79736
79742
79751.5
79763.2
79775.2
79784.9
79793.5
79929.6
79893.2
79849.9
79804.6
79761.3
79727.2
79704.7
79696.1
79701.9
79721.7
79753.2
79794.3
79837.8
79879.9
79915.7
79932.6
79843.3
79766.5
79674.8
79590.4
79524.2
79480.5
79463.9
79475
79513.3
79574.1
79653.3
79740.3
79813.1
79899.9
81401.5
80575.6
80218.7
79819.2
79530
79320.2
79192.8
79148.3
79185.7
79306.1
79508.9
79792
80185.7
80537.8
81370.6
80206.2
79295.6
79038.3
78540.1
78205.8
77944.8
77786.8
77730.7
77775.7
77921.4
78167.9
78483.9
78959.3
79183.6
80062.4
83121.3
80125.7
78403.6
77108.1
76286.6
75735.4
75427.1
75325.4
75421.3
75723
76266.8
77076.3
78375.6
80038.4
83093.8
65721.3
67895.1
67784.7
68128.3
68345.5
68479.6
68569
68605.3
68597.8
68539
68441.3
68265.5
67973.9
68168.9
65916
48150
52209.3
53377.9
54967
56065.5
56847.8
57323.6
57484.6
57344.2
56888.1
56127.3
55045.4
53469.3
52335.1
48075.4
35938.3
40255.3
41665.8
43627.2
44930.7
45892.7
46456.5
46618.5
46388.4
45749.5
44704.3
43294.6
41189
39632.8
34914.1
42783.9
44796.9
44413.4
45165.6
45462.2
45795.7
45964
45977.1
45827.4
45518.3
45028.5
44582.3
43559.1
43924.4
41398.8
62568.1
61919.5
60476.9
59848
59102
58706.3
58435.3
58338.3
58392.3
58628.9
58981
59745.9
60252.1
62083.3
62266.3
79639
76515.4
74860.4
73479.8
72396.8
71729.7
71330.6
71241.4
71430.2
71941.3
72714.1
73972.3
75453.8
77445.4
80993.7
73538.1
73842.8
74048.2
74025.9
73980
73932.6
73900.7
73923.3
73985.8
74105.7
74229.2
74371.8
74469.1
74345.8
74113.5
71698.9
71773.4
71794.2
71854
71923.9
71978.7
72017.3
72039.1
72035.5
72014.3
71969.3
71907.7
71841.6
71808.2
71694.6
72108
72040.4
71931.3
71834.1
71751.6
71695.6
71664.1
71655.3
71666.7
71700.5
71756.1
71836.7
71926.9
72038
72106.3
72313.2
72310.5
72293.5
72267.4
72236.3
72211
72194.8
72191.9
72202.6
72226.6
72259.1
72297.7
72329.6
72354.2
72362.6
72300.7
72308.2
72316.9
72327.8
72337.9
72346.4
72352
72355.9
72357.8
72357.8
72354.8
72349.9
72342.5
72336.1
72329.4
72275.3
72275.8
72275
72275.3
72276.8
72279
72280.8
72282
72282.3
72282
72281.2
72280.7
72280.5
72281.4
72281.3
72278
72277.5
72275
72271.5
72268.1
72265.6
72264
72263.6
72264.3
72266.2
72268.9
72272.2
72275.5
72278.1
72279
72291.3
72291.7
72291.3
72290.5
72289.6
72289.1
72288.7
72288.7
72289
72289.7
72290.5
72291.4
72292.2
72292.6
72292.6
72300.6
72301.2
72301.6
72301.7
72302
72302.3
72302.6
72302.7
72302.7
72302.7
72302.5
72302.3
72302.1
72301.8
72301.5
72303.9
72305.1
72306.6
72307.6
72307.9
72307.7
72307.2
72306.9
72307.1
72307.4
72307.7
72307.5
72306.9
72306
72305.3
72307.8
72309.7
72312.2
72313.6
72313.6
72312.7
72311.7
72311.3
72311.7
72312.5
72313.2
72313.2
72312.3
72310.9
72309.7
SCALARS density float 1
LOOKUP_TABLE default
1.29111
1.29111
1.29111
1.29111
1.29111
1.29111
1.29111
1.29111
1.29111
1.29111
1.29111
1.29111
1.29111
1.29111
1.29111
1.26798
1.26798
1.26798
1.26798
1.26798
1.26798
1.26798
1.26798
1.26798
1.26798
1.26798
1.26798
1.26798
1.26798
1.26798
1.26877
1.26877
1.26877
1.26877
1.26877
1.26876
1.26876
1.26876
1.26876
1.26876
1.26876
1.26876
1.26876
1.26876
1.26876
1.27267
1.27267
1.27267
1.27267
1.27266
1.27266
1.27266
1.27266
1.27266
1.27266
1.27266
1.27266
1.27266
1.27266
1.27266
1.27256
1.27255
1.27255
1.27254
1.27253
1.27253
1.27252
1.27252
1.27252
1.27252
1.27253
1.27253
1.27254
1.27254
1.27254
1.2719
1.27189
1.27188
1.27187
1.27185
1.27183
1.27182
1.27181
1.27181
1.27182
1.27183
1.27185
1.27186
1.27187
1.27187
1.27206
1.27202
1.27198
1.27192
1.27187
1.27182
1.27179
1.27177
1.27178
1.2718
1.27184
1.27189
1.27194
1.27197
1.272
1.27243
1.2723
1.27215
1.27197
1.27181
1.27168
1.27159
1.27156
1.27157
1.27164
1.27175
1.2719
1.27206
1.27219
1.27231
1.27374
1.27337
1.27291
1.2724
1.2719
1.2715
1.27124
1.27114
1.27121
1.27144
1.27181
1.27228
1.27277
1.27322
1.27361
1.27315
1.27231
1.27164
1.27075
1.26986
1.26914
1.26865
1.26847
1.26859
1.26902
1.26968
1.27051
1.27138
1.27205
1.27291
1.29129
1.28146
1.27702
1.27235
1.26906
1.26668
1.26523
1.26473
1.26515
1.26651
1.26881
1.27205
1.27664
1.28094
1.2907
1.28146
1.26968
1.2655
1.259
1.25475
1.25154
1.24961
1.24892
1.24946
1.25124
1.25428
1.2583
1.2644
1.26791
1.27909
1.30755
1.2762
1.25778
1.24313
1.23355
1.22708
1.22348
1.22229
1.22342
1.22697
1.23336
1.24274
1.25738
1.27563
1.30947
1.10072
1.12983
1.13117
1.1366
1.13965
1.14139
1.14255
1.14303
1.14295
1.14219
1.14085
1.13825
1.13389
1.13552
1.10888
0.874494
0.930144
0.947947
0.970053
0.984824
0.994985
1.0011
1.00317
1.00136
0.995448
0.98544
0.970923
0.94968
0.933791
0.876522
0.72537
0.783835
0.800717
0.826557
0.843974
0.856664
0.863951
0.866013
0.863041
0.854738
0.840983
0.822355
0.794849
0.776345
0.712657
0.800354
0.836603
0.836705
0.847821
0.85215
0.85703
0.859553
0.859818
0.857777
0.853412
0.846381
0.839799
0.825342
0.828489
0.792963
1.01901
1.02645
1.02401
1.02296
1.01578
1.01178
1.00909
1.00811
1.00839
1.01032
1.01307
1.01985
1.02091
1.03391
1.02828
1.21594
1.19371
1.191
1.18472
1.17536
1.16824
1.16384
1.16288
1.16476
1.1699
1.17736
1.18862
1.19887
1.2114
1.24364
1.15163
1.16483
1.18127
1.19143
1.19526
1.19564
1.19534
1.19555
1.196
1.19664
1.19637
1.19412
1.18808
1.17775
1.16899
1.13314
1.14208
1.1547
1.1657
1.17155
1.17345
1.17386
1.17393
1.17363
1.1727
1.17033
1.16545
1.1577
1.14947
1.1431
1.13902
1.14551
1.15564
1.16472
1.16939
1.17041
1.17001
1.16961
1.16947
1.16916
1.16777
1.16426
1.15841
1.15239
1.14854
1.14224
1.14888
1.1593
1.16902
1.17473
1.17654
1.17642
1.17603
1.17581
1.1753
1.17341
1.16921
1.1628
1.15618
1.15197
1.14287
1.14914
1.15923
1.16913
1.17558
1.17817
1.17847
1.17813
1.17773
1.1768
1.17431
1.16949
1.16277
1.15614
1.15202
1.14326
1.14905
1.15849
1.16801
1.17454
1.17738
1.17783
1.17747
1.17696
1.17588
1.17324
1.1684
1.16192
1.15568
1.15186
1.14389
1.14933
1.15829
1.16752
1.1741
1.17718
1.1778
1.17746
1.17686
1.17564
1.17288
1.16805
1.16176
1.15579
1.15217
1.14457
1.14973
1.15832
1.16734
1.17403
1.17738
1.17823
1.17795
1.17725
1.17585
1.17292
1.16804
1.16186
1.1561
1.15264
1.14516
1.15007
1.15831
1.16712
1.17386
1.17745
1.17851
1.1783
1.17751
1.17594
1.17287
1.16795
1.1619
1.15634
1.15303
1.14563
1.15034
1.15827
1.16688
1.17364
1.17742
1.17867
1.17851
1.17766
1.17594
1.17274
1.16783
1.1619
1.15652
1.15333
1.14614
1.15063
1.15825
1.16664
1.17341
1.17736
1.17881
1.17873
1.17781
1.17593
1.17262
1.1677
1.16191
1.15672
1.15366
SCALARS u-velocity float 1
LOOKUP_TABLE default
162.064
162.064
162.064
162.064
162.064
162.064
162.064
162.064
162.064
162.064
162.064
162.065
162.065
162.065
162.065
167.225
167.226
167.226
167.226
167.226
167.226
167.226
167.226
167.226
167.227
167.227
167.227
167.227
167.227
167.227
167.023
167.023
167.023
167.024
167.024
167.024
167.025
167.025
167.025
167.025
167.025
167.025
167.025
167.025
167.025
166.11
166.11
166.111
166.112
166.113
166.114
166.114
166.115
166.115
166.115
166.115
166.115
166.114
166.114
166.114
166.136
166.137
166.138
166.141
166.143
166.146
166.147
166.148
166.149
166.148
166.147
166.146
166.144
166.143
166.143
166.276
166.281
166.287
166.293
166.3
166.307
166.311
166.314
166.314
166.311
166.307
166.301
166.297
166.293
166.289
166.241
166.255
166.273
166.291
166.309
166.326
166.339
166.345
166.343
166.334
166.321
166.307
166.292
166.276
166.262
166.11
166.119
166.162
166.221
166.279
166.329
166.364
166.379
166.372
166.345
166.304
166.253
166.197
166.151
166.138
165.957
166.015
166.138
166.304
166.462
166.583
166.66
166.692
166.675
166.613
166.504
166.354
166.194
166.082
166.038
164.277
165.03
165.545
166.075
166.57
166.958
167.199
167.286
167.221
166.997
166.619
166.131
165.625
165.16
164.453
163.893
165.339
166.25
167.161
168.05
168.816
169.318
169.503
169.359
168.896
168.178
167.359
166.525
165.619
164.065
151.52
157.887
163.881
167.867
170.498
172.334
173.471
173.876
173.535
172.479
170.758
168.262
164.317
158.13
151.321
155.517
163.345
172.872
179.184
182.809
184.917
186.103
186.499
186.112
184.954
182.878
179.213
172.817
163.703
157.72
216.795
215.007
215.614
216.668
216.96
216.703
216.396
216.25
216.287
216.467
216.518
215.951
214.96
215.725
220.412
288.627
281.125
274.193
269.428
265.912
263.098
261.245
260.595
261.192
262.95
265.617
269.107
274.368
282.517
291.18
343.069
332.851
322.36
314.66
309.892
306.465
304.28
303.622
304.627
307.178
311.067
316.512
325.215
336.932
349.237
286.671
297.389
300.834
300.009
299.719
299.703
299.693
299.796
300.194
300.699
301.142
301.706
303.435
303.014
300.092
167.326
199.372
220.581
230.522
235.535
238.907
241.041
241.727
240.925
238.482
234.428
228.642
219.704
203.528
179.839
122.582
148.7
172.895
186.416
192.081
194.897
196.566
197.019
195.976
193.382
189.291
182.966
171.469
153.24
132.55
142.794
155.359
172.255
183.31
187.509
188.613
188.952
188.96
188.386
187.151
185.051
180.993
172.814
161.597
153.538
152.36
162.624
177.17
187.918
192.639
193.749
193.768
193.638
193.31
192.582
190.888
186.942
179.48
170.136
163.879
153.222
162.627
176.08
187.027
192.683
194.385
194.496
194.299
193.974
193.197
191.152
186.597
178.981
170.21
164.251
153.712
162.118
174.415
185.001
190.977
192.984
193.097
192.794
192.456
191.681
189.511
184.839
177.524
169.506
164.159
154.723
162.417
173.889
184.154
190.337
192.633
192.829
192.477
192.105
191.289
189.011
184.297
177.24
169.739
164.82
155.678
162.836
173.697
183.746
190.155
192.793
193.174
192.837
192.395
191.445
188.981
184.163
177.249
170.096
165.479
156.423
163.124
173.448
183.27
189.835
192.774
193.359
193.059
192.534
191.425
188.784
183.891
177.12
170.278
165.92
157.045
163.353
173.197
182.783
189.442
192.634
193.416
193.166
192.56
191.294
188.498
183.566
176.947
170.388
166.258
157.613
163.584
173.006
182.367
189.089
192.506
193.485
193.295
192.611
191.189
188.25
183.29
176.815
170.507
166.574
158.135
163.816
172.866
182.017
188.779
192.392
193.558
193.435
192.681
191.109
188.037
183.058
176.716
170.632
166.87
158.661
164.061
172.742
181.67
188.453
192.256
193.617
193.571
192.749
191.021
187.815
182.823
176.623
170.763
167.17
SCALARS v-velocity float 1
LOOKUP_TABLE default
4.97699e-05
9.73917e-05
0.000144078
0.000173947
0.000191629
0.000195373
0.000186186
0.000166443
0.000139325
0.000108723
7.87251e-05
5.19878e-05
2.77762e-05
1.04298e-05
-1.17159e-05
0.000121849
0.000303958
0.000429154
0.000495515
0.000520527
0.000506766
0.000456616
0.000377187
0.000282318
0.000186711
9.91604e-05
2.31816e-05
-3.69548e-05
-5.98142e-05
-3.8959e-05
9.51196e-05
0.000415492
0.000650979
0.00084025
0.000938595
0.000948385
0.000879256
0.000749529
0.000587607
0.00042055
0.000265088
0.000135908
5.38833e-05
2.88813e-06
4.18873e-05
0.000201438
0.000909944
0.00146681
0.00193546
0.00212381
0.00205091
0.00178499
0.00139646
0.00094187
0.000479029
8.8268e-05
-0.000135393
-0.000137841
-8.98241e-05
7.75425e-05
0.00118472
0.00359063
0.00486822
0.00566527
0.00576699
0.0051918
0.00405766
0.00258008
0.000988669
-0.000464833
-0.00151165
-0.00199485
-0.00193044
-0.00163328
-0.000488866
0.0030879
0.00955949
0.0127336
0.0144629
0.0145026
0.0127689
0.0093074
0.00472487
-4.0779e-05
-0.00403163
-0.00662541
-0.00782876
-0.0077809
-0.00659975
-0.0021333
0.00242108
0.0166661
0.0278324
0.0346461
0.0350457
0.0300831
0.0206112
0.00837015
-0.0042335
-0.014876
-0.0220209
-0.024905
-0.02198
-0.0141494
-0.00183788
0.0142334
0.0609097
0.0943435
0.111026
0.106071
0.084742
0.0528598
0.0154262
-0.0227321
-0.0568591
-0.0818679
-0.0912131
-0.0786487
-0.0494959
-0.0095941
0.104234
0.244903
0.324085
0.353608
0.332185
0.258793
0.152176
0.0289214
-0.0954179
-0.204852
-0.281362
-0.304644
-0.277327
-0.207113
-0.089119
0.251202
0.62771
0.765493
0.82225
0.772253
0.605337
0.35205
0.052099
-0.249631
-0.507745
-0.682528
-0.747047
-0.71853
-0.618844
-0.260637
0.314992
2.58791
2.82763
2.78193
2.34854
1.71771
0.938317
0.0761255
-0.789752
-1.58151
-2.2402
-2.72652
-2.85103
-2.67484
-0.363668
1.08066
5.60749
6.31165
6.20802
5.06726
3.60284
1.92857
0.156782
-1.61234
-3.28126
-4.74298
-5.8757
-5.9243
-5.12302
-0.672715
39.4737
32.6873
26.3396
20.7323
15.1471
9.95855
5.04214
0.285804
-4.45987
-9.34371
-14.4678
-19.9342
-25.3098
-31.7518
-39.1306
48.9947
35.6991
30.076
23.5671
17.4574
11.5649
5.80955
0.176471
-5.45792
-11.2122
-17.0806
-23.1507
-29.6862
-35.5632
-49.8656
28.8786
17.5535
16.2233
12.519
9.50176
6.36061
3.1182
-0.125826
-3.38375
-6.66745
-9.87099
-13.0262
-16.9618
-18.371
-30.0446
-17.3033
-19.7501
-11.9572
-9.40672
-6.21148
-3.80678
-1.81828
-0.0123124
1.80749
3.82625
6.30198
9.61748
12.4397
21.0056
17.9525
-48.9482
-42.3351
-29.8161
-24.0838
-17.0665
-10.8967
-4.89939
0.914769
6.79164
12.9862
19.5314
27.3531
33.7971
48.1925
53.1746
-41.1892
-32.1466
-23.4079
-18.7578
-13.466
-8.63927
-3.59289
1.38213
6.38511
11.5663
16.6443
22.5617
27.2915
37.3744
44.2269
-4.5686
-2.59365
-2.68909
-2.60669
-2.19234
-1.57392
-0.427944
0.856453
2.12622
3.28617
3.9028
4.41075
4.00699
3.53599
4.87169
-1.07271
-2.12269
-1.51344
-0.558171
-0.239363
-0.149611
0.0349063
0.283906
0.527378
0.724647
0.766544
0.945099
1.43366
1.56042
0.691704
-0.969629
-2.41351
-2.19943
-1.46233
-0.952211
-0.633757
-0.309056
0.0997163
0.523835
0.893952
1.20864
1.59316
2.05055
2.08118
0.796733
-0.392988
-0.998939
-0.930762
-0.551786
-0.277674
-0.181011
-0.0963118
0.0705066
0.26211
0.402663
0.511117
0.683229
0.854459
0.802391
0.293709
-0.235161
-0.536087
-0.414535
-0.0771589
0.148697
0.160584
0.083697
0.0292305
-0.000186506
-0.0286868
-0.0164086
0.1097
0.2807
0.321918
0.130979
-0.228277
-0.518002
-0.451553
-0.171631
0.0596026
0.117831
0.0639378
-0.00535205
-0.0527012
-0.0687486
-0.0190933
0.123389
0.280523
0.307964
0.13237
-0.20159
-0.465854
-0.439065
-0.21847
-0.00742524
0.0737437
0.0459335
-0.0149016
-0.0579702
-0.0579275
0.00953104
0.143599
0.269719
0.277338
0.118197
-0.170743
-0.39668
-0.379508
-0.191781
-0.000644862
0.0822031
0.0570838
-0.0139554
-0.0715766
-0.0780999
-0.0132479
0.109395
0.220205
0.227932
0.0973862
-0.149934
-0.351698
-0.344243
-0.18209
-0.00626362
0.0787797
0.059878
-0.0123748
-0.0752791
-0.0837484
-0.0199725
0.0948044
0.194053
0.199401
0.084817
-0.13449
-0.319558
-0.322879
-0.184749
-0.0240956
0.0626717
0.0536999
-0.010782
-0.069563
-0.075123
-0.011904
0.0946501
0.18168
0.181854
0.0765082
-0.126787
-0.304734
-0.316394
-0.192651
-0.0389685
0.0518979
0.0512182
-0.00791204
-0.0646497
-0.0686605
-0.0049868
0.0978485
0.177972
0.1742
0.0725824
-0.126646
-0.306552
-0.323164
-0.202776
-0.0473185
0.0488052
0.0524033
-0.00583352
-0.0634783
-0.0672452
-0.00167526
0.102463
0.18162
0.175676
0.0727956
SCALARS Mach float 1
LOOKUP_TABLE default
88.4012
88.4011
88.4011
88.4011
88.4011
88.4012
88.4013
88.4014
88.4015
88.4017
88.4018
88.4019
88.402
88.4021
88.4022
94.4378
94.4378
94.4379
94.4381
94.4383
94.4384
94.4386
94.4388
94.4389
94.4391
94.4391
94.4392
94.4393
94.4393
94.4393
94.1941
94.1945
94.1949
94.1953
94.1958
94.1962
94.1966
94.1969
94.1971
94.1972
94.1972
94.1972
94.197
94.1969
94.1966
93.1103
93.1106
93.1113
93.1122
93.1132
93.1143
93.1151
93.1157
93.116
93.116
93.1158
93.1154
93.115
93.1146
93.1143
93.1414
93.1422
93.1438
93.1464
93.1494
93.1522
93.1542
93.1554
93.1558
93.1553
93.154
93.1521
93.1502
93.1493
93.1488
93.307
93.3128
93.3197
93.3274
93.3355
93.3428
93.3482
93.351
93.351
93.3481
93.3429
93.3368
93.3311
93.3263
93.3218
93.2658
93.2823
93.3024
93.3232
93.3446
93.3646
93.3798
93.3869
93.3847
93.3742
93.3586
93.3417
93.3245
93.3065
93.2903
93.1182
93.1291
93.1782
93.2451
93.3129
93.3703
93.4109
93.4284
93.4201
93.3891
93.3416
93.2821
93.2184
93.1664
93.1511
92.9214
92.9939
93.1404
93.3342
93.5187
93.6598
93.7505
93.787
93.7679
93.6943
93.5676
93.3922
93.2052
93.071
93.0148
91.0266
91.8851
92.48
93.0942
93.6675
94.116
94.3944
94.4952
94.4196
94.1615
93.7249
93.1613
92.5754
92.0379
91.2319
90.4178
92.1598
93.2275
94.3138
95.3617
96.2608
96.8502
97.0657
96.8969
96.353
95.5086
94.5416
93.5426
92.4769
90.6043
77.562
84.4115
90.9596
95.483
98.4953
100.623
101.947
102.42
102.021
100.788
98.7904
95.9269
91.4332
84.6544
77.3538
86.2938
93.5997
103.511
110.412
114.356
116.664
117.976
118.415
117.97
116.674
114.379
110.343
103.269
93.8208
88.5964
170.864
163.773
163.627
163.974
163.503
162.494
161.666
161.324
161.484
162.1
162.77
162.79
162.544
164.888
177.024
303.051
283.025
268.707
258.288
250.783
244.894
241.083
239.761
240.979
244.601
250.194
257.652
269.151
286.144
309.228
448.026
414.633
385.535
364.556
351.903
343.002
337.458
335.805
338.299
344.752
354.846
369.342
393.245
426.291
466.941
309.161
329.559
335.248
331.697
329.764
328.835
328.346
328.491
329.675
331.509
333.687
336.639
342.926
345.543
343.56
101.28
140.335
171.118
186.91
195.013
200.521
204.099
205.294
204.005
200.005
193.465
184.32
170.519
147.687
117.797
49.6919
73.836
100.794
117.954
125.657
129.566
131.905
132.544
131.09
127.49
121.906
113.479
99.1037
78.5343
58.2648
68.1997
81.0344
100.168
113.935
119.441
120.91
121.356
121.359
120.594
118.955
116.19
110.941
100.823
87.8495
79.1288
77.9976
89.1806
106.408
120.217
126.584
128.1
128.112
127.925
127.479
126.491
124.192
118.917
109.304
97.8943
90.6337
78.8596
89.1348
105.032
119.04
126.674
129.029
129.182
128.907
128.458
127.384
124.579
118.469
108.654
97.9341
91.0002
79.3638
88.5402
102.957
116.339
124.305
127.052
127.208
126.791
126.325
125.261
122.316
116.121
106.794
97.0709
90.8715
80.4401
88.8783
102.317
115.233
123.432
126.559
126.827
126.344
125.833
124.717
121.637
115.412
106.442
97.3483
91.6281
81.4645
89.3533
102.089
114.709
123.193
126.785
127.31
126.846
126.238
124.936
121.606
115.246
106.459
97.7761
92.386
82.2671
89.6796
101.787
114.096
122.764
126.762
127.567
127.154
126.431
124.912
121.344
114.895
106.301
97.9915
92.8934
82.9395
89.9382
101.481
113.466
122.233
126.568
127.645
127.299
126.464
124.731
120.961
114.473
106.085
98.1215
93.2823
83.5569
90.2006
101.25
112.931
121.76
126.392
127.738
127.475
126.534
124.588
120.629
114.117
105.921
98.2631
93.6473
84.1264
90.4642
101.082
112.481
121.344
126.237
127.839
127.668
126.629
124.48
120.346
113.818
105.8
98.4121
93.9906
84.7043
90.7439
100.933
112.036
120.909
126.05
127.921
127.857
126.722
124.361
120.051
113.516
105.684
98.5685
94.339
