# vtk DataFile Version 3.0
Structured Grid Example
ASCII
DATASET STRUCTURED_GRID
DIMENSIONS 15 30 1
POINTS 450 FLOAT
0.0833327 0.0333334 0
0.0833313 0.1 0
0.0833301 0.166667 0
0.083329 0.233333 0
0.0833281 0.3 0
0.0833274 0.366667 0
0.083327 0.433333 0
0.0833268 0.5 0
0.083327 0.566667 0
0.0833274 0.633333 0
0.0833281 0.7 0
0.083329 0.766667 0
0.0833301 0.833333 0
0.0833313 0.9 0
0.0833327 0.966667 0
0.249998 0.0333334 0
0.249993 0.1 0
0.249989 0.166667 0
0.249986 0.233334 0
0.249983 0.3 0
0.24998 0.366667 0
0.249979 0.433333 0
0.249979 0.5 0
0.249979 0.566667 0
0.24998 0.633333 0
0.249983 0.7 0
0.249986 0.766666 0
0.249989 0.833333 0
0.249993 0.9 0
0.249998 0.966667 0
0.416662 0.0333336 0
0.416654 0.100001 0
0.416646 0.166668 0
0.416639 0.233334 0
0.416633 0.300001 0
0.416628 0.366667 0
0.416626 0.433334 0
0.416625 0.5 0
0.416626 0.566666 0
0.416628 0.633333 0
0.416633 0.699999 0
0.416639 0.766666 0
0.416646 0.833332 0
0.416654 0.899999 0
0.416662 0.966666 0
0.583326 0.033334 0
0.58331 0.100002 0
0.583296 0.166669 0
0.583284 0.233336 0
0.583273 0.300003 0
0.583266 0.366669 0
0.583261 0.433335 0
0.583259 0.5 0
0.583261 0.566665 0
0.583266 0.633331 0
0.583273 0.699997 0
0.583284 0.766664 0
0.583296 0.833331 0
0.58331 0.899998 0
0.583326 0.966666 0
0.749987 0.0333351 0
0.749961 0.100005 0
0.749937 0.166674 0
0.749915 0.233342 0
0.749898 0.300008 0
0.749884 0.366673 0
0.749876 0.433337 0
0.749874 0.5 0
0.749876 0.566663 0
0.749884 0.633327 0
0.749898 0.699992 0
0.749915 0.766658 0
0.749937 0.833326 0
0.749961 0.899995 0
0.749987 0.966665 0
0.916644 0.033338 0
0.916601 0.100013 0
0.91656 0.166686 0
0.916524 0.233356 0
0.916494 0.300021 0
0.916472 0.366683 0
0.916458 0.433342 0
0.916454 0.5 0
0.916458 0.566658 0
0.916472 0.633317 0
0.916494 0.699979 0
0.916524 0.766644 0
0.91656 0.833314 0
0.916601 0.899987 0
0.916644 0.966662 0
1.0833 0.0333461 0
1.08322 0.100036 0
1.08315 0.166719 0
1.08309 0.233394 0
1.08304 0.300058 0
1.08301 0.366712 0
1.08298 0.433358 0
1.08298 0.5 0
1.08298 0.566642 0
1.08301 0.633288 0
1.08304 0.699942 0
1.08309 0.766606 0
1.08315 0.833281 0
1.08322 0.899964 0
1.0833 0.966654 0
1.24994 0.0333682 0
1.24981 0.100098 0
1.2497 0.16681 0
1.24959 0.233497 0
1.24951 0.300156 0
1.24945 0.366788 0
1.24942 0.433399 0
1.2494 0.5 0
1.24942 0.566601 0
1.24945 0.633212 0
1.24951 0.699844 0
1.24959 0.766503 0
1.2497 0.83319 0
1.24981 0.899902 0
1.24994 0.966632 0
1.41656 0.0334298 0
1.41634 0.10027 0
1.41615 0.16706 0
1.41598 0.233778 0
1.41585 0.300419 0
1.41575 0.36699 0
1.41569 0.433509 0
1.41567 0.5 0
1.41569 0.566491 0
1.41575 0.63301 0
1.41585 0.699581 0
1.41598 0.766222 0
1.41615 0.83294 0
1.41634 0.89973 0
1.41656 0.96657 0
1.58313 0.0336075 0
1.58275 0.10076 0
1.58242 0.167751 0
1.58215 0.234537 0
1.58195 0.301115 0
1.58181 0.367517 0
1.58173 0.433791 0
1.58171 0.5 0
1.58173 0.566209 0
1.58181 0.632483 0
1.58195 0.698885 0
1.58215 0.765463 0
1.58242 0.832249 0
1.58275 0.89924 0
1.58313 0.966392 0
1.74959 0.0341677 0
1.74885 0.102235 0
1.74829 0.169714 0
1.74791 0.236575 0
1.74766 0.302905 0
1.74751 0.368829 0
1.74744 0.434482 0
1.74741 0.5 0
1.74744 0.565518 0
1.74751 0.631171 0
1.74766 0.697095 0
1.74791 0.763425 0
1.74829 0.830286 0
1.74885 0.897765 0
1.74959 0.965832 0
1.91555 0.0363295 0
1.91388 0.107253 0
1.91312 0.175401 0
1.91283 0.241837 0
1.91276 0.307169 0
1.91277 0.371793 0
1.9128 0.435995 0
1.91281 0.5 0
1.9128 0.564005 0
1.91277 0.628207 0
1.91276 0.692831 0
1.91283 0.758163 0
1.91312 0.824599 0
1.91388 0.892747 0
1.91555 0.963671 0
2.07838 0.0591504 0
2.07417 0.125973 0
2.07554 0.190391 0
2.07663 0.253364 0
2.07743 0.315525 0
2.07798 0.377223 0
2.07829 0.438667 0
2.0784 0.5 0
2.07829 0.561333 0
2.07798 0.622777 0
2.07743 0.684475 0
2.07663 0.746636 0
2.07554 0.809609 0
2.07417 0.874027 0
2.07838 0.94085 0
2.24384 0.096456 0
2.23911 0.153168 0
2.24152 0.210396 0
2.24318 0.267878 0
2.24431 0.325632 0
2.24503 0.383617 0
2.24544 0.441767 0
2.24557 0.5 0
2.24544 0.558233 0
2.24503 0.616383 0
2.24431 0.674368 0
2.24318 0.732122 0
2.24152 0.789604 0
2.23911 0.846832 0
2.24384 0.903544 0
2.41462 0.118677 0
2.41292 0.170231 0
2.41356 0.223198 0
2.41406 0.277268 0
2.41444 0.332207 0
2.4147 0.387788 0
2.41485 0.44379 0
2.4149 0.5 0
2.41485 0.55621 0
2.4147 0.612212 0
2.41444 0.667793 0
2.41406 0.722732 0
2.41356 0.776802 0
2.41292 0.829769 0
2.41462 0.881323 0
2.58538 0.118677 0
2.58708 0.170231 0
2.58644 0.223198 0
2.58594 0.277268 0
2.58556 0.332207 0
2.5853 0.387788 0
2.58515 0.44379 0
2.5851 0.5 0
2.58515 0.55621 0
2.5853 0.612212 0
2.58556 0.667793 0
2.58594 0.722732 0
2.58644 0.776802 0
2.58708 0.829769 0
2.58538 0.881323 0
2.75616 0.096456 0
2.76089 0.153168 0
2.75848 0.210396 0
2.75682 0.267878 0
2.75569 0.325632 0
2.75497 0.383617 0
2.75456 0.441767 0
2.75443 0.5 0
2.75456 0.558233 0
2.75497 0.616383 0
2.75569 0.674368 0
2.75682 0.732122 0
2.75848 0.789604 0
2.76089 0.846832 0
2.75616 0.903544 0
2.92162 0.0591504 0
2.92583 0.125973 0
2.92446 0.190391 0
2.92337 0.253364 0
2.92257 0.315525 0
2.92202 0.377223 0
2.92171 0.438667 0
2.9216 0.5 0
2.92171 0.561333 0
2.92202 0.622777 0
2.92257 0.684475 0
2.92337 0.746636 0
2.92446 0.809609 0
2.92583 0.874027 0
2.92162 0.94085 0
3.08445 0.0363295 0
3.08612 0.107253 0
3.08688 0.175401 0
3.08717 0.241837 0
3.08724 0.307169 0
3.08723 0.371793 0
3.0872 0.435995 0
3.08719 0.5 0
3.0872 0.564005 0
3.08723 0.628207 0
3.08724 0.692831 0
3.08717 0.758163 0
3.08688 0.824599 0
3.08612 0.892747 0
3.08445 0.963671 0
3.25041 0.0341677 0
3.25115 0.102235 0
3.25171 0.169714 0
3.25209 0.236575 0
3.25234 0.302905 0
3.25249 0.368829 0
3.25256 0.434482 0
3.25259 0.5 0
3.25256 0.565518 0
3.25249 0.631171 0
3.25234 0.697095 0
3.25209 0.763425 0
3.25171 0.830286 0
3.25115 0.897765 0
3.25041 0.965832 0
3.41687 0.0336075 0
3.41725 0.10076 0
3.41758 0.167751 0
3.41785 0.234537 0
3.41805 0.301115 0
3.41819 0.367517 0
3.41827 0.433791 0
3.41829 0.5 0
3.41827 0.566209 0
3.41819 0.632483 0
3.41805 0.698885 0
3.41785 0.765463 0
3.41758 0.832249 0
3.41725 0.89924 0
3.41687 0.966392 0
3.58344 0.0334298 0
3.58366 0.10027 0
3.58385 0.16706 0
3.58402 0.233778 0
3.58415 0.300419 0
3.58425 0.36699 0
3.58431 0.433509 0
3.58433 0.5 0
3.58431 0.566491 0
3.58425 0.63301 0
3.58415 0.699581 0
3.58402 0.766222 0
3.58385 0.83294 0
3.58366 0.89973 0
3.58344 0.96657 0
3.75006 0.0333682 0
3.75019 0.100098 0
3.7503 0.16681 0
3.75041 0.233497 0
3.75049 0.300156 0
3.75055 0.366788 0
3.75058 0.433399 0
3.7506 0.5 0
3.75058 0.566601 0
3.75055 0.633212 0
3.75049 0.699844 0
3.75041 0.766503 0
3.7503 0.83319 0
3.75019 0.899902 0
3.75006 0.966632 0
3.9167 0.0333461 0
3.91678 0.100036 0
3.91685 0.166719 0
3.91691 0.233394 0
3.91696 0.300058 0
3.91699 0.366712 0
3.91702 0.433358 0
3.91702 0.5 0
3.91702 0.566642 0
3.91699 0.633288 0
3.91696 0.699942 0
3.91691 0.766606 0
3.91685 0.833281 0
3.91678 0.899964 0
3.9167 0.966654 0
4.08336 0.033338 0
4.0834 0.100013 0
4.08344 0.166686 0
4.08348 0.233356 0
4.08351 0.300021 0
4.08353 0.366683 0
4.08354 0.433342 0
4.08355 0.5 0
4.08354 0.566658 0
4.08353 0.633317 0
4.08351 0.699979 0
4.08348 0.766644 0
4.08344 0.833314 0
4.0834 0.899987 0
4.08336 0.966662 0
4.25001 0.0333351 0
4.25004 0.100005 0
4.25006 0.166674 0
4.25008 0.233342 0
4.2501 0.300008 0
4.25012 0.366673 0
4.25012 0.433337 0
4.25013 0.5 0
4.25012 0.566663 0
4.25012 0.633327 0
4.2501 0.699992 0
4.25008 0.766658 0
4.25006 0.833326 0
4.25004 0.899995 0
4.25001 0.966665 0
4.41667 0.033334 0
4.41669 0.100002 0
4.4167 0.166669 0
4.41672 0.233336 0
4.41673 0.300003 0
4.41673 0.366669 0
4.41674 0.433335 0
4.41674 0.5 0
4.41674 0.566665 0
4.41673 0.633331 0
4.41673 0.699997 0
4.41672 0.766664 0
4.4167 0.833331 0
4.41669 0.899998 0
4.41667 0.966666 0
4.58334 0.0333336 0
4.58335 0.100001 0
4.58335 0.166668 0
4.58336 0.233334 0
4.58337 0.300001 0
4.58337 0.366667 0
4.58337 0.433334 0
4.58338 0.5 0
4.58337 0.566666 0
4.58337 0.633333 0
4.58337 0.699999 0
4.58336 0.766666 0
4.58335 0.833332 0
4.58335 0.899999 0
4.58334 0.966666 0
4.75 0.0333334 0
4.75001 0.1 0
4.75001 0.166667 0
4.75001 0.233334 0
4.75002 0.3 0
4.75002 0.366667 0
4.75002 0.433333 0
4.75002 0.5 0
4.75002 0.566667 0
4.75002 0.633333 0
4.75002 0.7 0
4.75001 0.766666 0
4.75001 0.833333 0
4.75001 0.9 0
4.75 0.966667 0
4.91667 0.0333334 0
4.91667 0.1 0
4.91667 0.166667 0
4.91667 0.233333 0
4.91667 0.3 0
4.91667 0.366667 0
4.91667 0.433333 0
4.91667 0.5 0
4.91667 0.566667 0
4.91667 0.633333 0
4.91667 0.7 0
4.91667 0.766667 0
4.91667 0.833333 0
4.91667 0.9 0
4.91667 0.966667 0
POINT_DATA 450
SCALARS pressure float 1
LOOKUP_TABLE default
94018.6
94018.6
94017.7
94018.9
94018
94019.8
94018.4
94020.2
94018.4
94019.8
94018
94018.9
94017.7
94018.6
94018.6
92093.7
92079.8
92062.1
92040.2
92027.3
92011.3
92008.4
92001.4
92008.4
92011.3
92027.2
92040.1
92061.9
92079.5
92093.3
94083.3
94083.6
94082.8
94083.7
94082.6
94084
94082.6
94084.1
94082.6
94083.9
94082.6
94083.7
94082.8
94083.6
94083.3
91982.3
91979.6
91979.4
91972.8
91974.1
91966.4
91970.4
91963.9
91970.4
91966.4
91974.1
91972.7
91979.3
91979.5
91982.2
94153.1
94153.8
94152
94153.9
94151
94153.8
94150.5
94153.8
94150.5
94153.8
94151
94153.8
94152
94153.8
94153.1
91905.6
91901.5
91905.7
91895.2
91903.4
91889.4
91901.2
91887.1
91901.2
91889.4
91903.4
91895.1
91905.6
91901.5
91905.6
94230.7
94232.6
94226.9
94231.7
94222.5
94230.1
94219.6
94229.4
94219.6
94230.1
94222.5
94231.7
94226.9
94232.5
94230.7
91850.4
91834.1
91842
91806
91822.9
91781.4
91808.7
91772
91808.7
91781.4
91822.8
91805.9
91841.9
91834
91850.3
94332.3
94334.6
94312.3
94322.1
94288.1
94308.6
94272.6
94303.1
94272.6
94308.6
94288.1
94322.2
94312.2
94334.6
94332.3
91950.1
91837.9
91839.6
91683.1
91699.2
91567.5
91614
91526.1
91614
91567.4
91699.1
91682.9
91839.5
91837.6
91950
94573.8
94540.2
94428.2
94428.9
94290.3
94341.6
94213.8
94310
94213.7
94341.8
94290.1
94429.2
94427.9
94540.4
94573.4
93338.7
92084.7
91980.5
91268.2
91180.2
90833.6
90820.3
90699.4
90820.4
90833.3
91180.4
91267.5
91980.5
92083.4
93337.9
95817
95153.6
94362.9
94293
93791.8
93961.4
93579.2
93872.3
93578.9
93962.3
93790.9
94295.2
94361.1
95158.1
95813.8
84889.5
86409
85587.3
86867.8
86143.6
87187.4
86428.7
87297
86428.7
87187.9
86143.6
86868.8
85587.2
86410.8
84889.2
87821.7
89704.7
89359.3
90835.9
90236.2
91416.7
90633.8
91594.7
90633.7
91416.6
90235.9
90835.7
89358.8
89704.3
87820.6
81362.1
83761
83054.5
84958.7
84081.3
85619.4
84565.2
85829.3
84565.3
85619.3
84081.5
84958.5
83054.6
83760.6
81361.8
89612.9
90981.7
90460.1
91563.4
90992.9
91905.8
91248.6
92017.1
91248.9
91905
90993.8
91561.7
90461.7
90978.7
89615.1
90661.4
89891.3
89544.8
89343.6
88998.2
89081.6
88770
89006
88769.8
89081.9
88997.7
89344.2
89544.1
89892.2
90660.9
97090.6
95720.1
95553.1
94928.8
94766.3
94516.3
94427.2
94389.3
94427.3
94516.3
94766.5
94929
95553.4
95720.5
97091.5
90122.2
90114.1
90049.7
90067.7
89972.2
90021.2
89923.5
90003
89923.4
90021.3
89972.2
90067.8
90049.6
90114.2
90122.2
95216.3
95095.4
95063.1
94928.5
94894.5
94805.8
94797.7
94762.3
94797.7
94805.8
94894.5
94928.5
95063.1
95095.4
95216.2
90405.9
90407.1
90391.6
90402.9
90377.7
90397.7
90369
90395.4
90369
90397.7
90377.7
90402.9
90391.6
90407.1
90405.9
94737.8
94725.4
94721.8
94697.5
94694.3
94672.3
94675.4
94662.6
94675.4
94672.3
94694.3
94697.5
94721.8
94725.3
94737.8
90632.2
90633.7
90628.6
90633.9
90625.5
90633.6
90623.6
90633.4
90623.6
90633.6
90625.5
90634
90628.6
90633.7
90632.2
94523.4
94521.6
94521.9
94516.8
94517.9
94512.1
94514.8
94510.2
94514.8
94512.1
94517.9
94516.7
94521.9
94521.6
94523.4
90794.4
90795.5
90793.2
90796.2
90792.4
90796.5
90792
90796.6
90792
90796.5
90792.4
90796.2
90793.2
90795.5
90794.4
94389.1
94388.6
94389.1
94387.5
94388.6
94386.5
94388.1
94386.1
94388.1
94386.5
94388.6
94387.5
94389.1
94388.6
94389.1
90909.2
90910.3
90908.8
90911.2
90908.7
90911.8
90908.7
90912
90908.7
90911.8
90908.7
90911.2
90908.8
90910.3
90909.2
94296.8
94296.6
94296.9
94296.1
94296.8
94295.8
94296.7
94295.7
94296.7
94295.8
94296.8
94296.1
94296.9
94296.6
94296.8
90988
90990.1
90988.7
90992.7
90990
90994.5
90990.7
90995.1
90990.7
90994.5
90990
90992.7
90988.7
90990.2
90988
SCALARS density float 1
LOOKUP_TABLE default
1.21902
1.22103
1.22301
1.22448
1.22511
1.22566
1.22572
1.22593
1.22572
1.22566
1.22511
1.22448
1.22301
1.22104
1.21905
1.20586
1.20679
1.2079
1.20848
1.20876
1.20884
1.20889
1.20888
1.20889
1.20884
1.20876
1.20848
1.2079
1.20679
1.20587
1.21924
1.22132
1.22336
1.22489
1.22554
1.22612
1.22618
1.22639
1.22618
1.22612
1.22554
1.22489
1.22335
1.22132
1.21926
1.20527
1.20619
1.20745
1.20811
1.20855
1.20865
1.2088
1.20875
1.2088
1.20865
1.20854
1.20811
1.20745
1.20619
1.20528
1.21937
1.22157
1.22367
1.22531
1.22597
1.2266
1.22664
1.22688
1.22664
1.2266
1.22597
1.22531
1.22366
1.22157
1.2194
1.20514
1.20589
1.20718
1.20771
1.20823
1.2082
1.20847
1.20829
1.20846
1.2082
1.20823
1.20771
1.20718
1.20589
1.20515
1.21941
1.22178
1.22393
1.22573
1.22636
1.22709
1.22705
1.22739
1.22705
1.22709
1.22636
1.22573
1.22393
1.22179
1.21944
1.2054
1.20582
1.20715
1.20728
1.20792
1.20752
1.208
1.20752
1.208
1.20752
1.20792
1.20728
1.20715
1.20582
1.20541
1.21945
1.22205
1.22416
1.22619
1.22662
1.22755
1.22726
1.22783
1.22726
1.22755
1.22662
1.22619
1.22416
1.22206
1.21948
1.20746
1.2066
1.20794
1.20663
1.20733
1.20588
1.20663
1.20553
1.20663
1.20587
1.20733
1.20663
1.20793
1.2066
1.20747
1.22049
1.22304
1.22452
1.22667
1.22623
1.22752
1.2264
1.2276
1.2264
1.22752
1.22623
1.22668
1.22452
1.22305
1.22052
1.22311
1.2099
1.21041
1.2031
1.20288
1.19906
1.19931
1.19775
1.19931
1.19905
1.20289
1.20309
1.21041
1.20989
1.22312
1.23066
1.22824
1.22339
1.22513
1.22138
1.2238
1.22039
1.22337
1.22039
1.2238
1.22137
1.22515
1.22337
1.22828
1.23068
1.13537
1.15213
1.14377
1.15824
1.15112
1.16214
1.1545
1.16338
1.1545
1.16214
1.15112
1.15825
1.14376
1.15216
1.13539
1.16501
1.18478
1.1808
1.19637
1.19052
1.20232
1.19466
1.20406
1.19466
1.20232
1.19052
1.19637
1.18079
1.18479
1.16502
1.09959
1.12556
1.11785
1.1389
1.12992
1.14621
1.13531
1.14846
1.13531
1.14621
1.12992
1.1389
1.11785
1.12558
1.09961
1.1792
1.19377
1.18992
1.2016
1.197
1.20588
1.20002
1.20714
1.20002
1.20587
1.197
1.20159
1.18993
1.19376
1.17924
1.19087
1.18636
1.18308
1.18258
1.17949
1.18077
1.17775
1.18019
1.17775
1.18078
1.17949
1.18259
1.18307
1.18639
1.19088
1.24215
1.23442
1.23375
1.23005
1.22932
1.22766
1.22707
1.22682
1.22707
1.22766
1.22932
1.23005
1.23374
1.23444
1.24218
1.18588
1.18797
1.18836
1.18999
1.18982
1.19079
1.19004
1.1909
1.19004
1.19079
1.18982
1.18999
1.18836
1.18799
1.1859
1.2266
1.22773
1.22817
1.22849
1.22884
1.22861
1.22869
1.2285
1.22869
1.22861
1.22884
1.22849
1.22816
1.22775
1.22662
1.19018
1.19221
1.19316
1.19461
1.19518
1.19582
1.19578
1.19608
1.19578
1.19582
1.19517
1.19461
1.19315
1.19222
1.1902
1.22092
1.22278
1.22354
1.22472
1.22534
1.22566
1.22584
1.22584
1.22583
1.22566
1.22534
1.22472
1.22353
1.2228
1.22094
1.19428
1.19622
1.19734
1.19869
1.19944
1.19994
1.2001
1.20022
1.2001
1.19994
1.19943
1.19869
1.19734
1.19623
1.1943
1.21699
1.21883
1.2197
1.22099
1.22167
1.22212
1.2223
1.22237
1.2223
1.22212
1.22167
1.22099
1.2197
1.21884
1.217
1.19827
1.20011
1.20131
1.2026
1.2034
1.20386
1.20407
1.20413
1.20407
1.20386
1.2034
1.2026
1.20131
1.20013
1.19828
1.2132
1.21497
1.21595
1.21722
1.21793
1.2184
1.21858
1.21866
1.21858
1.2184
1.21793
1.21722
1.21595
1.21499
1.21322
1.20244
1.2042
1.20542
1.20667
1.20747
1.20792
1.20814
1.20819
1.20814
1.20792
1.20747
1.20667
1.20542
1.20422
1.20246
1.20912
1.21082
1.21192
1.21317
1.21391
1.21438
1.21457
1.21465
1.21457
1.21438
1.21391
1.21317
1.21192
1.21084
1.20913
1.20709
1.20877
1.20994
1.21118
1.21194
1.21241
1.21261
1.21268
1.21261
1.21241
1.21194
1.21118
1.20994
1.20878
1.20711
SCALARS u-velocity float 1
LOOKUP_TABLE default
118.926
119.79
120.978
121.722
122.107
122.344
122.404
122.475
122.404
122.344
122.106
121.721
120.977
119.794
118.94
114.668
114.636
114.558
114.589
114.613
114.676
114.694
114.723
114.694
114.676
114.613
114.589
114.559
114.637
114.668
118.807
119.744
121.042
121.846
122.268
122.524
122.591
122.666
122.591
122.524
122.267
121.845
121.041
119.748
118.822
115.168
114.958
114.592
114.429
114.299
114.26
114.226
114.232
114.226
114.26
114.299
114.43
114.593
114.958
115.164
118.633
119.667
121.124
121.993
122.474
122.744
122.833
122.902
122.832
122.744
122.473
121.992
121.123
119.671
118.65
115.434
115.109
114.5
114.27
114.02
113.986
113.885
113.931
113.885
113.986
114.02
114.27
114.501
115.109
115.428
118.382
119.533
121.227
122.154
122.75
123.009
123.166
123.191
123.165
123.008
122.749
122.153
121.226
119.537
118.402
115.575
115.183
114.262
114.115
113.689
113.833
113.579
113.801
113.579
113.833
113.69
114.115
114.263
115.182
115.565
117.922
119.216
121.336
122.298
123.191
123.361
123.75
123.605
123.75
123.361
123.19
122.297
121.334
119.221
117.946
114.618
114.748
113.459
114.139
113.505
114.365
113.841
114.533
113.841
114.366
113.506
114.141
113.461
114.749
114.605
116.36
118.034
121.319
122.374
124.266
124.175
125.348
124.656
125.348
124.174
124.266
122.371
121.319
118.037
116.39
103.368
112.635
111.362
116.277
115.922
118.557
118.128
119.329
118.128
118.56
115.922
116.282
111.365
112.645
103.349
106.054
113.105
122.776
124.31
129.328
128.213
131.411
129.174
131.412
128.207
129.332
124.295
122.784
113.079
106.114
149.301
143.444
146.795
142.293
145.596
141.013
144.552
140.51
144.552
141.012
145.593
142.292
146.789
143.45
149.313
162.765
155.092
155.131
149.034
151.33
145.719
149.269
144.622
149.269
145.719
151.33
149.035
155.13
155.103
162.783
168.499
159.684
160.516
153.774
156.492
150.458
154.356
149.362
154.355
150.461
156.488
153.78
160.509
159.705
168.509
143.737
141.432
143.771
141.42
143.62
140.64
143.003
140.237
143.001
140.645
143.614
141.432
143.756
141.467
143.731
109.323
121.456
121.54
127.688
128.008
130.429
130.399
131.164
130.399
130.428
128.006
127.689
121.531
121.474
109.333
92.1348
110.345
110.775
119.264
119.433
123.164
122.44
124.195
122.439
123.164
119.428
119.266
110.763
110.37
92.1447
114.485
120.901
120.372
124.488
123.874
125.941
124.953
126.273
124.952
125.941
123.871
124.491
120.364
120.925
114.492
106.283
113.341
113.029
117.831
117.25
119.857
118.668
120.364
118.667
119.858
117.247
117.833
113.021
113.365
106.291
114.025
119.771
119.526
123.103
122.512
124.345
123.299
124.583
123.298
124.345
122.509
123.105
119.519
119.793
114.034
109.001
114.766
114.747
118.373
117.88
119.792
118.746
120.084
118.745
119.793
117.877
118.375
114.741
114.788
109.01
113.322
118.678
118.847
122.058
121.701
123.308
122.426
123.538
122.425
123.308
121.699
122.059
118.842
118.699
113.331
110.125
115.409
115.796
118.926
118.685
120.242
119.424
120.487
119.423
120.242
118.683
118.927
115.791
115.429
110.135
112.725
117.754
118.31
121.222
121.104
122.505
121.809
122.74
121.808
122.506
121.102
121.222
118.306
117.773
112.735
110.911
115.832
116.583
119.387
119.382
120.703
120.087
120.942
120.087
120.703
119.38
119.387
116.58
115.851
110.921
112.232
116.97
117.864
120.529
120.618
121.845
121.314
122.083
121.313
121.845
120.616
120.529
117.862
116.988
112.242
111.565
116.172
117.231
119.783
119.971
121.114
120.662
121.353
120.662
121.114
119.969
119.783
117.23
116.19
111.575
111.825
116.296
117.482
119.935
120.199
121.272
120.885
121.511
120.885
121.272
120.197
119.934
117.481
116.312
111.835
SCALARS v-velocity float 1
LOOKUP_TABLE default
-0.280324
-0.663986
-0.829538
-0.749846
-0.631613
-0.42077
-0.223476
-0.000246506
0.22035
0.420144
0.628259
0.748788
0.825569
0.662038
0.277103
0.0194393
0.061035
0.0711592
0.0685844
0.0559869
0.0388962
0.0201998
-0.000113633
-0.0195541
-0.0391139
-0.0553281
-0.068771
-0.0704636
-0.0611532
-0.0188146
-0.0548843
-0.1626
-0.207702
-0.20931
-0.185192
-0.131533
-0.0714422
0.000239201
0.068816
0.132019
0.182611
0.209848
0.205285
0.163281
0.0529082
0.0211477
0.0915697
0.094341
0.0993634
0.0758271
0.0565709
0.0277991
-0.000318971
-0.0264513
-0.0571989
-0.0744712
-0.0999574
-0.092964
-0.0920925
-0.0198684
-0.0115109
-0.136661
-0.114649
-0.146317
-0.0976423
-0.084555
-0.0367456
0.000684177
0.0341138
0.0859193
0.0950321
0.147672
0.112122
0.137959
0.00916188
0.00783914
0.143397
0.111108
0.14932
0.093635
0.0853989
0.035077
-0.000625516
-0.0328153
-0.0866421
-0.0913633
-0.150531
-0.108821
-0.144539
-0.0056552
0.0623411
-0.177575
-0.0232263
-0.142002
-0.0148089
-0.0669061
-0.00340931
0.00117753
0.000335797
0.0692317
0.0116783
0.14423
0.0200456
0.179579
-0.0655198
-0.0448975
0.281134
0.133618
0.287535
0.130814
0.168655
0.0518221
-0.00104729
-0.048324
-0.170763
-0.127256
-0.289665
-0.129974
-0.28326
0.0484979
0.373313
-0.114051
0.460261
0.12228
0.399592
0.142264
0.156053
0.00189207
-0.159625
-0.138498
-0.403425
-0.118624
-0.464515
0.117329
-0.378097
-0.17619
0.799806
0.312396
0.833392
0.348297
0.499905
0.143125
-0.00145736
-0.138328
-0.502953
-0.343086
-0.836802
-0.306462
-0.80376
0.182797
2.44736
1.6582
3.20395
2.43838
2.42294
1.55585
0.879723
0.0027895
-0.882702
-1.55006
-2.42661
-2.43211
-3.20918
-1.65209
-2.45621
0.0183469
3.69653
2.04673
3.37321
1.75325
1.86248
0.65406
-0.000878684
-0.650768
-1.8647
-1.74814
-3.37689
-2.03725
-3.7035
0.00304198
24.7526
26.2846
17.912
16.7665
10.2998
7.98849
3.32682
0.0025824
-3.32517
-7.98284
-10.2975
-16.7587
-17.9088
-26.2703
-24.7619
28.3114
20.0566
14.9075
10.8711
7.37482
4.79989
2.22218
0.0035269
-2.23462
-4.79243
-7.38944
-10.8623
-14.9272
-20.0456
-28.3453
12.4122
9.47433
7.63369
5.70519
4.21494
2.70891
1.34866
0.00100613
-1.34944
-2.70677
-4.21651
-5.70273
-7.63702
-9.47225
-12.4197
-11.1582
-9.7865
-6.04026
-5.5179
-3.04211
-2.50376
-0.933849
0.00549732
0.921383
2.51541
3.02799
5.53177
6.02245
9.80542
11.1334
-24.35
-23.1167
-14.2372
-13.1712
-7.43925
-5.96389
-2.30129
-0.00163347
2.30593
5.96049
7.44462
13.1679
14.2434
23.118
24.3566
-24.0285
-25.5014
-15.3517
-14.7399
-8.52163
-6.83138
-2.72289
0.0019295
2.72189
6.83507
8.52174
14.7433
15.3536
25.508
24.0346
-0.814248
-1.31805
-1.56133
-1.88686
-1.40555
-1.21731
-0.537281
0.000453079
0.53644
1.21832
1.40433
1.88819
1.55922
1.32015
0.811813
-2.6519
-2.56618
-3.37696
-3.00393
-2.46578
-1.77825
-0.881716
0.000907449
0.880066
1.77994
2.4641
3.00515
3.37519
2.56605
2.65096
-0.279243
-0.0134084
-0.303073
-0.179543
-0.242715
-0.146349
-0.0938871
0.000788901
0.0923765
0.147918
0.241225
0.181021
0.301835
0.0142977
0.278685
-0.564816
-0.113497
-0.731856
-0.41416
-0.584382
-0.307207
-0.220416
0.000766366
0.218745
0.308692
0.582765
0.415439
0.730569
0.113924
0.56457
-0.214999
0.146556
-0.139033
0.0582369
-0.0834341
0.0177059
-0.0294343
0.00072955
0.0280898
-0.0162794
0.0821694
-0.0569546
0.138093
-0.145928
0.214673
-0.295455
0.137926
-0.250919
0.0125137
-0.175341
-0.0170663
-0.0642884
0.000653374
0.0629019
0.0183345
0.174041
-0.0114071
0.249965
-0.137539
0.295308
-0.186677
0.150258
-0.101525
0.0845518
-0.0527142
0.0391661
-0.0174716
0.0006086
0.0163744
-0.03798
0.0516903
-0.0834877
0.100776
-0.14977
0.186463
-0.221264
0.140846
-0.147548
0.0637285
-0.0886538
0.0254476
-0.0306584
0.000535536
0.0295469
-0.0244092
0.0876178
-0.0628154
0.146789
-0.140528
0.221161
-0.160691
0.130461
-0.0821469
0.0772935
-0.0412078
0.037368
-0.0134616
0.000492015
0.0125719
-0.0364091
0.0403785
-0.0764251
0.081537
-0.130076
0.160544
-0.179801
0.115698
-0.110792
0.0577662
-0.0632627
0.0259087
-0.0213472
0.000430511
0.0204558
-0.0250741
0.0624304
-0.0570242
0.11017
-0.115443
0.17973
-0.141022
0.109082
-0.0729382
0.0636712
-0.0382646
0.0305307
-0.0127558
0.000387647
0.0120124
-0.0297756
0.0375733
-0.0629803
0.072426
-0.108791
0.140925
-0.146778
0.0912029
-0.0869813
0.0461186
-0.0492516
0.0211286
-0.0165615
0.000343617
0.0158469
-0.0204623
0.0485829
-0.0455183
0.0864691
-0.0909975
0.146727
SCALARS Mach float 1
LOOKUP_TABLE default
0.296894
0.298809
0.301532
0.3032
0.304081
0.304598
0.304742
0.304888
0.304741
0.304597
0.30408
0.303198
0.301529
0.298817
0.296927
0.290814
0.290641
0.290339
0.290381
0.290429
0.290605
0.290649
0.290735
0.290649
0.290606
0.290431
0.290384
0.290343
0.290644
0.290813
0.296466
0.298551
0.301538
0.303349
0.304319
0.304883
0.305045
0.305203
0.305045
0.304882
0.304318
0.303347
0.301535
0.29856
0.296503
0.29233
0.291691
0.29061
0.290128
0.289743
0.289644
0.289535
0.289564
0.289535
0.289645
0.289744
0.290129
0.290613
0.29169
0.292319
0.295907
0.298217
0.301593
0.303549
0.304668
0.305257
0.305479
0.305615
0.305478
0.305257
0.304666
0.303547
0.301589
0.298226
0.295948
0.293143
0.292234
0.290525
0.289894
0.289184
0.289123
0.288818
0.288977
0.288819
0.289124
0.289186
0.289895
0.290529
0.292233
0.293126
0.295155
0.297732
0.301697
0.303773
0.30519
0.30573
0.306142
0.306147
0.306142
0.305729
0.305189
0.303771
0.301693
0.297742
0.295201
0.293557
0.292538
0.290025
0.289694
0.28851
0.288987
0.288243
0.288921
0.288244
0.288988
0.288512
0.289695
0.29003
0.292536
0.293532
0.293846
0.29675
0.301804
0.303927
0.306149
0.306422
0.307483
0.307002
0.307482
0.306421
0.306148
0.303924
0.301801
0.29676
0.293902
0.290722
0.291339
0.287898
0.290035
0.288307
0.290879
0.289378
0.291409
0.289379
0.290882
0.28831
0.29004
0.287905
0.291342
0.290688
0.289522
0.293398
0.301636
0.303945
0.308923
0.308418
0.311667
0.309629
0.311668
0.308413
0.308925
0.303936
0.301637
0.293403
0.289595
0.258557
0.285348
0.282119
0.296688
0.295863
0.303651
0.302509
0.305982
0.302508
0.30366
0.295862
0.296705
0.282126
0.285376
0.258512
0.268034
0.287068
0.30863
0.311908
0.323963
0.320171
0.328751
0.322153
0.328755
0.32015
0.323975
0.311861
0.308655
0.286987
0.268187
0.413689
0.387964
0.398567
0.380238
0.391262
0.374619
0.386801
0.372634
0.3868
0.374615
0.391258
0.38023
0.398557
0.387968
0.413736
0.43131
0.402817
0.404112
0.382364
0.390364
0.371539
0.383403
0.368054
0.383403
0.371539
0.390365
0.382366
0.404114
0.402846
0.431361
0.477153
0.440358
0.445541
0.418071
0.429176
0.405971
0.421032
0.402068
0.421028
0.405979
0.429164
0.418091
0.44552
0.440416
0.477172
0.379027
0.367511
0.372168
0.361894
0.368285
0.357365
0.365283
0.355618
0.365278
0.35738
0.368266
0.361929
0.372127
0.367609
0.379004
0.287904
0.321184
0.3181
0.334206
0.334654
0.340351
0.340914
0.34203
0.340914
0.34035
0.334651
0.334206
0.318081
0.321228
0.287933
0.224234
0.271323
0.272701
0.295012
0.295754
0.305596
0.304005
0.308452
0.304003
0.305598
0.295742
0.295017
0.27267
0.271381
0.224254
0.296049
0.312368
0.311113
0.321466
0.320041
0.325129
0.322831
0.325972
0.32283
0.32513
0.320034
0.321473
0.311091
0.312426
0.296066
0.26284
0.280344
0.279572
0.291615
0.290189
0.296808
0.293867
0.298144
0.293865
0.29681
0.290182
0.291621
0.279553
0.280402
0.26286
0.293791
0.308326
0.307604
0.316594
0.315045
0.319635
0.317001
0.320215
0.316999
0.319636
0.315038
0.316599
0.307587
0.308381
0.293809
0.270872
0.284999
0.284868
0.293767
0.292474
0.297212
0.294591
0.29793
0.294589
0.297214
0.292467
0.293771
0.284853
0.285051
0.270892
0.29111
0.30462
0.304918
0.312971
0.311974
0.316011
0.313748
0.316566
0.313746
0.316013
0.311968
0.312974
0.304905
0.30467
0.291131
0.274417
0.287369
0.288227
0.295871
0.295187
0.299013
0.296954
0.299596
0.296952
0.299014
0.295182
0.295873
0.288216
0.287417
0.274439
0.288837
0.301487
0.302762
0.310042
0.309645
0.313162
0.311361
0.313724
0.31136
0.313163
0.30964
0.310044
0.302753
0.301534
0.288859
0.277001
0.289083
0.290839
0.297681
0.297579
0.300819
0.299258
0.301382
0.299257
0.300819
0.297574
0.297681
0.290832
0.289127
0.277024
0.286892
0.298781
0.300917
0.307556
0.307687
0.310752
0.309375
0.311324
0.309374
0.310753
0.307682
0.307556
0.300911
0.298825
0.286916
0.279242
0.29057
0.293086
0.299312
0.299689
0.302487
0.301333
0.303051
0.301332
0.302488
0.299685
0.299312
0.293081
0.290611
0.279266
0.285176
0.296368
0.299249
0.305333
0.305914
0.308577
0.307574
0.309151
0.307573
0.308577
0.30591
0.305332
0.299246
0.296409
0.285201
