# vtk DataFile Version 3.0
Structured Grid Example
ASCII
DATASET STRUCTURED_GRID
DIMENSIONS 30 60 1
POINTS 1800 FLOAT
0.0416666 0.0166667 0
0.0416664 0.05 0
0.0416662 0.0833333 0
0.041666 0.116667 0
0.0416658 0.15 0
0.0416656 0.183333 0
0.0416654 0.216667 0
0.0416653 0.25 0
0.0416651 0.283333 0
0.041665 0.316667 0
0.0416649 0.35 0
0.0416648 0.383333 0
0.0416648 0.416667 0
0.0416647 0.45 0
0.0416647 0.483333 0
0.0416647 0.516667 0
0.0416647 0.55 0
0.0416648 0.583333 0
0.0416648 0.616667 0
0.0416649 0.65 0
0.041665 0.683333 0
0.0416651 0.716667 0
0.0416653 0.75 0
0.0416654 0.783333 0
0.0416656 0.816667 0
0.0416658 0.85 0
0.041666 0.883333 0
0.0416662 0.916667 0
0.0416664 0.95 0
0.0416666 0.983333 0
0.125 0.0166667 0
0.124999 0.05 0
0.124998 0.0833334 0
0.124998 0.116667 0
0.124997 0.15 0
0.124997 0.183333 0
0.124996 0.216667 0
0.124996 0.25 0
0.124995 0.283333 0
0.124995 0.316667 0
0.124995 0.35 0
0.124994 0.383333 0
0.124994 0.416667 0
0.124994 0.45 0
0.124994 0.483333 0
0.124994 0.516667 0
0.124994 0.55 0
0.124994 0.583333 0
0.124994 0.616667 0
0.124995 0.65 0
0.124995 0.683333 0
0.124995 0.716667 0
0.124996 0.75 0
0.124996 0.783333 0
0.124997 0.816667 0
0.124997 0.85 0
0.124998 0.883333 0
0.124998 0.916667 0
0.124999 0.95 0
0.125 0.983333 0
0.208333 0.0166667 0
0.208332 0.0500001 0
0.208331 0.0833334 0
0.20833 0.116667 0
0.208329 0.15 0
0.208328 0.183334 0
0.208327 0.216667 0
0.208326 0.25 0
0.208325 0.283334 0
0.208325 0.316667 0
0.208324 0.35 0
0.208324 0.383333 0
0.208323 0.416667 0
0.208323 0.45 0
0.208323 0.483333 0
0.208323 0.516667 0
0.208323 0.55 0
0.208323 0.583333 0
0.208324 0.616667 0
0.208324 0.65 0
0.208325 0.683333 0
0.208325 0.716666 0
0.208326 0.75 0
0.208327 0.783333 0
0.208328 0.816666 0
0.208329 0.85 0
0.20833 0.883333 0
0.208331 0.916667 0
0.208332 0.95 0
0.208333 0.983333 0
0.291666 0.0166667 0
0.291664 0.0500001 0
0.291663 0.0833335 0
0.291661 0.116667 0
0.29166 0.15 0
0.291658 0.183334 0
0.291657 0.216667 0
0.291656 0.25 0
0.291655 0.283334 0
0.291654 0.316667 0
0.291653 0.35 0
0.291652 0.383334 0
0.291652 0.416667 0
0.291651 0.45 0
0.291651 0.483333 0
0.291651 0.516667 0
0.291651 0.55 0
0.291652 0.583333 0
0.291652 0.616666 0
0.291653 0.65 0
0.291654 0.683333 0
0.291655 0.716666 0
0.291656 0.75 0
0.291657 0.783333 0
0.291658 0.816666 0
0.29166 0.85 0
0.291661 0.883333 0
0.291663 0.916666 0
0.291664 0.95 0
0.291666 0.983333 0
0.374999 0.0166667 0
0.374997 0.0500002 0
0.374994 0.0833337 0
0.374992 0.116667 0
0.37499 0.150001 0
0.374988 0.183334 0
0.374986 0.216667 0
0.374985 0.250001 0
0.374983 0.283334 0
0.374982 0.316667 0
0.37498 0.350001 0
0.37498 0.383334 0
0.374979 0.416667 0
0.374978 0.45 0
0.374978 0.483333 0
0.374978 0.516667 0
0.374978 0.55 0
0.374979 0.583333 0
0.37498 0.616666 0
0.37498 0.649999 0
0.374982 0.683333 0
0.374983 0.716666 0
0.374985 0.749999 0
0.374986 0.783333 0
0.374988 0.816666 0
0.37499 0.849999 0
0.374992 0.883333 0
0.374994 0.916666 0
0.374997 0.95 0
0.374999 0.983333 0
0.458332 0.0166668 0
0.458329 0.0500003 0
0.458326 0.0833339 0
0.458323 0.116667 0
0.45832 0.150001 0
0.458317 0.183334 0
0.458315 0.216668 0
0.458312 0.250001 0
0.45831 0.283334 0
0.458308 0.316668 0
0.458307 0.350001 0
0.458306 0.383334 0
0.458305 0.416667 0
0.458304 0.45 0
0.458304 0.483333 0
0.458304 0.516667 0
0.458304 0.55 0
0.458305 0.583333 0
0.458306 0.616666 0
0.458307 0.649999 0
0.458308 0.683332 0
0.45831 0.716666 0
0.458312 0.749999 0
0.458315 0.783332 0
0.458317 0.816666 0
0.45832 0.849999 0
0.458323 0.883333 0
0.458326 0.916666 0
0.458329 0.95 0
0.458332 0.983333 0
0.541665 0.0166669 0
0.54166 0.0500006 0
0.541656 0.0833342 0
0.541653 0.116668 0
0.541649 0.150001 0
0.541645 0.183335 0
0.541642 0.216668 0
0.541639 0.250002 0
0.541636 0.283335 0
0.541634 0.316668 0
0.541632 0.350001 0
0.54163 0.383335 0
0.541629 0.416668 0
0.541628 0.450001 0
0.541627 0.483334 0
0.541627 0.516666 0
0.541628 0.549999 0
0.541629 0.583332 0
0.54163 0.616665 0
0.541632 0.649999 0
0.541634 0.683332 0
0.541636 0.716665 0
0.541639 0.749998 0
0.541642 0.783332 0
0.541645 0.816665 0
0.541649 0.849999 0
0.541653 0.883332 0
0.541656 0.916666 0
0.54166 0.949999 0
0.541665 0.983333 0
0.624997 0.016667 0
0.624992 0.0500009 0
0.624987 0.0833349 0
0.624981 0.116669 0
0.624976 0.150002 0
0.624972 0.183336 0
0.624967 0.21667 0
0.624963 0.250003 0
0.62496 0.283336 0
0.624956 0.316669 0
0.624954 0.350002 0
0.624952 0.383335 0
0.62495 0.416668 0
0.624949 0.450001 0
0.624948 0.483334 0
0.624948 0.516666 0
0.624949 0.549999 0
0.62495 0.583332 0
0.624952 0.616665 0
0.624954 0.649998 0
0.624956 0.683331 0
0.62496 0.716664 0
0.624963 0.749997 0
0.624967 0.78333 0
0.624972 0.816664 0
0.624976 0.849998 0
0.624981 0.883331 0
0.624987 0.916665 0
0.624992 0.949999 0
0.624997 0.983333 0
0.70833 0.0166672 0
0.708323 0.0500016 0
0.708316 0.0833359 0
0.708309 0.11667 0
0.708302 0.150004 0
0.708296 0.183338 0
0.708291 0.216672 0
0.708285 0.250005 0
0.708281 0.283338 0
0.708276 0.316671 0
0.708273 0.350004 0
0.70827 0.383337 0
0.708268 0.416669 0
0.708266 0.450002 0
0.708265 0.483334 0
0.708265 0.516666 0
0.708266 0.549998 0
0.708268 0.583331 0
0.70827 0.616663 0
0.708273 0.649996 0
0.708276 0.683329 0
0.708281 0.716662 0
0.708285 0.749995 0
0.708291 0.783328 0
0.708296 0.816662 0
0.708302 0.849996 0
0.708309 0.88333 0
0.708316 0.916664 0
0.708323 0.949998 0
0.70833 0.983333 0
0.791662 0.0166676 0
0.791653 0.0500026 0
0.791644 0.0833376 0
0.791635 0.116672 0
0.791626 0.150007 0
0.791618 0.183341 0
0.791611 0.216675 0
0.791604 0.250009 0
0.791598 0.283342 0
0.791592 0.316674 0
0.791588 0.350007 0
0.791584 0.383339 0
0.791581 0.416671 0
0.791579 0.450003 0
0.791578 0.483334 0
0.791578 0.516666 0
0.791579 0.549997 0
0.791581 0.583329 0
0.791584 0.616661 0
0.791588 0.649993 0
0.791592 0.683326 0
0.791598 0.716658 0
0.791604 0.749991 0
0.791611 0.783325 0
0.791618 0.816659 0
0.791626 0.849993 0
0.791635 0.883328 0
0.791644 0.916662 0
0.791653 0.949997 0
0.791662 0.983332 0
0.874994 0.0166682 0
0.874982 0.0500044 0
0.87497 0.0833405 0
0.874959 0.116676 0
0.874948 0.150012 0
0.874937 0.183346 0
0.874927 0.216681 0
0.874918 0.250014 0
0.87491 0.283347 0
0.874903 0.31668 0
0.874897 0.350012 0
0.874892 0.383343 0
0.874889 0.416674 0
0.874886 0.450004 0
0.874885 0.483335 0
0.874885 0.516665 0
0.874886 0.549996 0
0.874889 0.583326 0
0.874892 0.616657 0
0.874897 0.649988 0
0.874903 0.68332 0
0.87491 0.716653 0
0.874918 0.749986 0
0.874927 0.783319 0
0.874937 0.816654 0
0.874948 0.849988 0
0.874959 0.883324 0
0.87497 0.916659 0
0.874982 0.949996 0
0.874994 0.983332 0
0.958325 0.0166692 0
0.95831 0.0500074 0
0.958294 0.0833454 0
0.958279 0.116683 0
0.958265 0.150019 0
0.958251 0.183355 0
0.958239 0.21669 0
0.958227 0.250024 0
0.958217 0.283357 0
0.958207 0.316689 0
0.9582 0.350019 0
0.958193 0.383349 0
0.958189 0.416679 0
0.958185 0.450007 0
0.958184 0.483336 0
0.958184 0.516664 0
0.958185 0.549993 0
0.958189 0.583321 0
0.958193 0.616651 0
0.9582 0.649981 0
0.958207 0.683311 0
0.958217 0.716643 0
0.958227 0.749976 0
0.958239 0.78331 0
0.958251 0.816645 0
0.958265 0.849981 0
0.958279 0.883317 0
0.958294 0.916655 0
0.95831 0.949993 0
0.958325 0.983331 0
1.04166 0.0166709 0
1.04164 0.0500125 0
1.04162 0.0833535 0
1.0416 0.116694 0
1.04158 0.150033 0
1.04156 0.18337 0
1.04154 0.216706 0
1.04153 0.25004 0
1.04152 0.283373 0
1.0415 0.316703 0
1.04149 0.350033 0
1.04148 0.38336 0
1.04148 0.416687 0
1.04147 0.450012 0
1.04147 0.483338 0
1.04147 0.516662 0
1.04147 0.549988 0
1.04148 0.583313 0
1.04148 0.61664 0
1.04149 0.649967 0
1.0415 0.683297 0
1.04152 0.716627 0
1.04153 0.74996 0
1.04154 0.783294 0
1.04156 0.81663 0
1.04158 0.849967 0
1.0416 0.883306 0
1.04162 0.916646 0
1.04164 0.949988 0
1.04166 0.983329 0
1.12499 0.0166738 0
1.12496 0.050021 0
1.12493 0.0833672 0
1.12491 0.116712 0
1.12488 0.150055 0
1.12486 0.183395 0
1.12484 0.216733 0
1.12482 0.250068 0
1.1248 0.283399 0
1.12479 0.316728 0
1.12477 0.350054 0
1.12476 0.383378 0
1.12476 0.4167 0
1.12475 0.450021 0
1.12475 0.48334 0
1.12475 0.51666 0
1.12475 0.549979 0
1.12476 0.5833 0
1.12476 0.616622 0
1.12477 0.649946 0
1.12479 0.683272 0
1.1248 0.716601 0
1.12482 0.749932 0
1.12484 0.783267 0
1.12486 0.816605 0
1.12488 0.849945 0
1.12491 0.883288 0
1.12493 0.916633 0
1.12496 0.949979 0
1.12499 0.983326 0
1.20832 0.0166786 0
1.20828 0.0500352 0
1.20825 0.0833903 0
1.20821 0.116743 0
1.20818 0.150092 0
1.20815 0.183437 0
1.20813 0.216778 0
1.2081 0.250113 0
1.20808 0.283444 0
1.20806 0.31677 0
1.20804 0.350091 0
1.20803 0.383409 0
1.20802 0.416723 0
1.20801 0.450035 0
1.20801 0.483345 0
1.20801 0.516655 0
1.20801 0.549965 0
1.20802 0.583277 0
1.20803 0.616591 0
1.20804 0.649909 0
1.20806 0.68323 0
1.20808 0.716556 0
1.2081 0.749887 0
1.20813 0.783222 0
1.20815 0.816563 0
1.20818 0.849908 0
1.20821 0.883257 0
1.20825 0.91661 0
1.20828 0.949965 0
1.20832 0.983321 0
1.29164 0.0166867 0
1.2916 0.0500593 0
1.29155 0.0834291 0
1.29151 0.116795 0
1.29147 0.150154 0
1.29143 0.183507 0
1.2914 0.216853 0
1.29136 0.25019 0
1.29133 0.283518 0
1.29131 0.316839 0
1.29129 0.350152 0
1.29127 0.383459 0
1.29126 0.416761 0
1.29125 0.450058 0
1.29124 0.483353 0
1.29124 0.516647 0
1.29125 0.549942 0
1.29126 0.583239 0
1.29127 0.616541 0
1.29129 0.649848 0
1.29131 0.683161 0
1.29133 0.716482 0
1.29136 0.74981 0
1.2914 0.783147 0
1.29143 0.816493 0
1.29147 0.849846 0
1.29151 0.883205 0
1.29155 0.916571 0
1.2916 0.949941 0
1.29164 0.983313 0
1.37497 0.0167005 0
1.37491 0.0501 0
1.37485 0.0834948 0
1.3748 0.116882 0
1.37474 0.15026 0
1.37469 0.183626 0
1.37465 0.216979 0
1.3746 0.250318 0
1.37457 0.283643 0
1.37453 0.316955 0
1.37451 0.350254 0
1.37449 0.383543 0
1.37447 0.416823 0
1.37446 0.450097 0
1.37445 0.483366 0
1.37445 0.516634 0
1.37446 0.549903 0
1.37447 0.583177 0
1.37449 0.616457 0
1.37451 0.649746 0
1.37453 0.683045 0
1.37457 0.716357 0
1.3746 0.749682 0
1.37465 0.783021 0
1.37469 0.816374 0
1.37474 0.84974 0
1.3748 0.883118 0
1.37485 0.916505 0
1.37491 0.9499 0
1.37497 0.983299 0
1.45829 0.0167241 0
[...]
POINT_DATA 1800
SCALARS pressure float 1
LOOKUP_TABLE default
94289.3
94289.2
94289
94288.8
94288.5
94288.2
94287.9
94287.6
94287.4
94287.3
94287.3
94287.4
94287.6
94287.9
94288.2
94288.5
94288.8
94289
94289.2
94289.3
94289.3
94289.2
94289
94288.7
94288.5
94288.1
94287.9
94287.6
94287.4
94287.3
94314.4
94314.2
94313.9
94313.5
94313
94312.5
94312
94311.6
94311.3
94311.1
94311.1
94311.3
94311.6
94312
94312.5
94313
94313.5
94313.9
94314.2
94314.3
94314.3
94314.2
94313.9
94313.4
94313
94312.4
94312
94311.5
94311.2
94311.1
94301.4
94301.4
94301.2
94301
94300.7
94300.4
94300.1
94299.8
94299.7
94299.6
94299.6
94299.7
94299.8
94300.1
94300.4
94300.6
94300.9
94301.2
94301.4
94301.4
94301.4
94301.3
94301.2
94300.9
94300.6
94300.3
94300.1
94299.8
94299.6
94299.6
94302.2
94302.3
94302.2
94302.2
94302.1
94302
94301.9
94301.8
94301.8
94301.7
94301.8
94301.8
94301.8
94301.9
94301.9
94302
94302.1
94302.1
94302.2
94302.2
94302.2
94302.2
94302.2
94302.1
94302
94302
94301.9
94301.9
94301.7
94301.9
94308.6
94308.9
94308.9
94309.4
94309.6
94310
94310.4
94310.6
94310.9
94310.9
94310.9
94310.8
94310.6
94310.3
94309.9
94309.5
94309.2
94308.9
94308.7
94308.5
94308.6
94308.7
94308.9
94309.2
94309.6
94310
94310.3
94310.7
94310.8
94311.1
94290.8
94291.3
94291.6
94292.5
94293.2
94294.2
94295
94295.7
94296.2
94296.5
94296.5
94296.1
94295.6
94294.8
94294
94293.1
94292.2
94291.5
94291
94290.7
94290.7
94291
94291.5
94292.3
94293.1
94294.1
94294.9
94295.8
94296.1
94296.6
94313.3
94313.9
94314.6
94315.9
94317.1
94318.7
94320
94321.1
94322
94322.4
94322.4
94321.8
94321
94319.7
94318.4
94316.9
94315.5
94314.3
94313.5
94313
94313.1
94313.5
94314.4
94315.6
94317
94318.6
94319.8
94321.2
94321.9
94322.5
94279.5
94280.3
94281.2
94283
94284.7
94286.8
94288.5
94290.2
94291.2
94291.8
94291.8
94291.1
94289.9
94288.2
94286.4
94284.3
94282.5
94280.9
94279.7
94279.1
94279.2
94279.8
94281
94282.7
94284.5
94286.7
94288.4
94290.3
94291.3
94292.1
94319
94319.9
94321
94323.2
94325.2
94327.7
94329.7
94331.7
94333
94333.7
94333.6
94332.8
94331.4
94329.3
94327.1
94324.6
94322.4
94320.4
94319.1
94318.4
94318.5
94319.3
94320.7
94322.8
94325
94327.7
94329.8
94332
94333.2
94334.2
94268.8
94269.6
94271
94273.2
94275.4
94278.1
94280.4
94282.5
94283.8
94284.6
94284.4
94283.5
94281.9
94279.6
94277.2
94274.4
94272
94269.9
94268.4
94267.6
94267.7
94268.7
94270.3
94272.6
94275.1
94278
94280.4
94282.8
94284.3
94285.2
94329.2
94330
94331.4
94333.6
94335.8
94338.4
94340.6
94342.7
94344
94344.6
94344.4
94343.4
94341.7
94339.4
94336.8
94334.1
94331.6
94329.5
94328
94327.4
94327.5
94328.6
94330.2
94332.7
94335.3
94338.3
94340.8
94343.3
94344.8
94345.7
94258.9
94259.4
94260.8
94262.6
94264.6
94266.9
94268.8
94270.6
94271.6
94272.1
94271.8
94270.7
94269
94266.8
94264.4
94261.8
94259.6
94257.6
94256.3
94255.8
94256
94257.2
94258.8
94261.4
94263.8
94266.8
94269.2
94271.6
94273.1
94273.9
94346.4
94346.7
94347.8
94349
94350.6
94352.2
94353.5
94354.7
94355.3
94355.4
94354.9
94353.8
94352.2
94350.2
94348.2
94346
94344.2
94342.7
94341.8
94341.6
94342
94343.3
94344.9
94347.4
94349.7
94352.5
94354.7
94356.8
94358.3
94358.9
94249.6
94249.4
94250.2
94250.6
94251.4
94252
94252.5
94252.8
94252.7
94252.3
94251.5
94250.2
94248.8
94247.2
94245.5
94244
94242.7
94241.8
94241.4
94241.7
94242.3
94243.8
94245.4
94247.8
94249.9
94252.4
94254.4
94256.3
94257.6
94258.1
94373.9
94373.3
94373.5
94372.8
94372.5
94371.7
94371
94369.9
94368.8
94367.4
94366
94364.5
94363.1
94361.7
94360.6
94359.8
94359.2
94359.3
94359.6
94360.6
94361.8
94363.8
94365.6
94368.1
94370.1
94372.6
94374.4
94376.1
94377.3
94377.8
94242.1
94240.7
94240.2
94237.9
94236.4
94233.5
94231.4
94228.3
94226
94223.2
94221.2
94219
94217.5
94216.3
94215.6
94215.5
94215.8
94216.8
94218
94220.1
94221.9
94224.7
94226.9
94230
94232.1
94235
94236.7
94238.7
94239.7
94240.4
94418.5
94416.2
94414.7
94410.3
94406.8
94401.2
94396.6
94390.9
94386.3
94381.4
94377.8
94374.4
94372.4
94371
94370.7
94371.3
94372.6
94375.1
94377.6
94381.4
94384.7
94389.3
94392.8
94397.5
94400.7
94404.8
94407.2
94410
94411.2
94412.4
94242.4
94238.2
94235.7
94227.5
94222
94211.7
94204.8
94194.5
94187.8
94179.3
94174.2
94168.7
94166
94163.8
94163.7
94165
94167.2
94171.3
94175.2
94181.5
94186.4
94193.9
94199
94207
94211.5
94218.8
94222.1
94227.7
94229.1
94231.9
94500
94493.3
94488.5
94475
94464.9
94448.2
94435.7
94419.1
94407.2
94393.4
94384.3
94375.2
94370.1
94366.5
94365.8
94367.6
94371.1
94377.6
94384.3
94394.6
94403.2
94416
94425.5
94439.3
94448.2
94461.3
94468.1
94478.3
94481.4
94486.5
94281.5
94267.2
94260.6
94234.1
94220.1
94189.5
94172.5
94144
94127.7
94105.1
94092.6
94077.8
94070.8
94064.4
94063.4
94065.2
94069.7
94079
94087.9
94103.7
94115.8
94136.8
94150.4
94175.1
94188.3
94214.1
94224.4
94246.9
94251.5
94263.9
94686.3
94659.4
94645
94599.4
94572.3
94522.4
94491.4
94446
94417.7
94381.9
94360.4
94336.7
94324.1
94313.5
94310.4
94312.5
94318.6
94332.8
94346.9
94372
94392.6
94427.4
94452.3
94494.6
94520.7
94566.7
94589
94631.3
94642.8
94668.4
94484.2
94405
94386.9
94283.3
94247.9
94153.1
94113.3
94037.8
94002.2
93947.9
93921.4
93887.3
93871.9
93856.4
93852.4
93854.2
93861.3
93879.5
93896.7
93931.5
93957.7
94010.2
94043.1
94114.6
94150.4
94240.2
94271.5
94371
94386.3
94464.4
95252.5
95059.1
95003
94819.3
94741.4
94591.1
94517.6
94403.5
94344.4
94264.1
94222.3
94172.2
94148
94124.9
94117.7
94119.6
94128.7
94154.9
94179.7
94231.6
94271.8
94352.2
94407.1
94520.3
94587.2
94736.9
94806.9
94991.6
95040.7
95237.2
95463.7
94762.5
94711.7
94283.1
94194.4
93938
93857.5
93702.5
93641.6
93548.9
93508.3
93456.4
93433.9
93411.1
93404.5
93405.6
93413.9
93438.3
93461.9
93514.1
93554.4
93645.6
93704.6
93856.2
93933.5
94185.1
94269.5
94693.5
94738.8
95438.8
96595.2
95662.3
95290.5
94783.1
94594.8
94291.6
94175.6
93990.3
93914.8
93802.6
93754.7
93691
93664.6
93636.1
93627.8
93628.7
93637.3
93667.3
93693.4
93758.4
93804.2
93917.8
93988.4
94176.5
94282.6
94592.7
94761.6
95285.9
95618.3
96590.1
92404.3
92739.9
92423.1
92600
92469.9
92558.5
92505.1
92551.1
92530.3
92555.6
92548.5
92562.5
92560.8
92567.3
92567.4
92567.8
92568.5
92562.7
92565
92551.7
92559.2
92534.6
92555.6
92510.6
92564.3
92476.7
92608.5
92430.9
92755.6
92407.9
92364.2
92742.6
92533
92744.9
92616
92735.8
92662.4
92730.9
92691.3
92731
92710.9
92733
92724.1
92733.9
92731.9
92731.5
92735.4
92724.5
92735.9
92712.2
92735.9
92693.5
92739.1
92665.6
92749.8
92620.3
92769.7
92538.6
92788.1
92366.7
89789
90440.2
90302.1
90763.3
90714.6
91042
91040.2
91267.5
91285.6
91437.4
91459.2
91551.8
91568.3
91611.7
91618.5
91617
91613.2
91566.6
91553.9
91457.1
91440.8
91283
91273.4
91036.8
91052.4
90709.8
90781.2
90295.6
90469.8
89773.8
89404.9
90190.7
90164.5
90723.3
90728.4
91123.6
91143.2
91415.6
91439.3
91619.7
91641
91750.2
91765.1
91815.7
91822.2
91820
91817.6
91762.3
91752.4
91637.4
91622.9
91434.5
91420.6
91136.7
91131.7
90719.5
90736
90152.8
90208.5
89381
88096
88989.4
88995.1
89647.8
89680.1
90153.6
90196.7
90531.9
90574.8
90802
90837.6
90977.5
91001.3
91066.8
91076.3
91073.3
91068.1
90996.3
90977.6
90830.2
90800.9
90564.5
90529.7
90182.7
90150.2
89661.4
89642.8
88971.2
88979.6
88056.2
88631.6
89494.5
89516
90155.9
90189.2
90655.9
90693.1
91024.2
91058.7
91283.1
91310.9
91448.8
91467.4
91531.7
91539.7
91536.3
91533.5
91462.2
91449.2
91303.3
91281.9
91047.9
91021.1
90678
90649.7
90168.4
90145.1
89488
89473.8
88584.9
88858.3
89630.8
89595.2
90171.9
90163.6
90584.6
90592.2
90891.8
90906.2
91110
91125.1
91250.7
91262.4
91320.7
91326.9
91322.6
91322.9
91255.7
91251.2
91115.2
91108.6
90892.2
90888.1
90572.5
90577.8
90136.5
90160.8
89558.4
89610.4
88800.6
90505.7
91061.2
90975.1
91392.9
91343.8
91649.7
91624.3
91842.3
91830.7
91979
91975.2
92066.3
92066.8
92108.4
92111.4
92107
92112.5
92061.3
92070.3
91967.7
91983.2
91819.8
91846.7
91608.3
91654.2
91320.4
91397.4
90941.5
91062.5
90452.6
91603.1
91906.4
91752.1
91962.9
91869.4
92023.3
91967.5
92080.6
92048.2
92128.2
92111
92161.3
92154.5
92176.8
92178.2
92172.9
92182.2
92148.4
92167.4
92102.9
92135.5
92036.8
92089.9
91950.7
92035.6
91844.9
91979.5
91716.2
91927
91550.3
93690.3
93672.8
93503.8
93461.9
93348.7
93318.4
93236
93218.6
93159.4
93150.6
93111.5
93107.1
93086.3
93082.9
93079.8
93075.5
93090
93084.1
93117.5
93110.3
93165.2
93157.9
93238.2
93232.6
93345
93341.1
93498.5
93488.2
93724.1
93667.6
94957.8
94241.4
94136.9
93742.1
93659
93449
93385.3
93272
93225.6
93164.9
93134.5
93102.7
93087
93071.6
93070.2
93065.6
93078.5
93084
93112.5
93132.3
93178.6
93223.4
93290.9
93382.4
93475.9
93654.6
93781.7
94129.9
94312.7
94979.2
96889.1
95896.7
95715.7
95143.3
94977.9
94634.6
94503.4
94291.8
94196.2
94066.7
94003.3
93928.2
93893.5
93858.1
93849.8
93847.4
93865
93895.3
93939.7
94009.3
94083.2
94206.9
94313.9
94520.1
94663.3
95003.4
95178.6
95755.5
95943.2
96986.1
94006.2
94046.4
94022.5
93978.7
93946.8
93882.6
93849.3
93790.2
93761.1
93715.5
93694.1
93663.4
93651.4
93635.1
93633.3
93630.4
93639.2
93649.5
93668.8
93692.7
93722
93759.7
93797.4
93847
93889.3
93942.2
93982.3
94014
94044.6
93994.7
95064.8
94976.8
94920.3
94787.4
94720.7
94597.2
94535.2
94435.7
94384.7
94311.6
94274.6
94226.9
94205.4
94181.2
94175.7
94174.1
94184.9
94205.8
94232.8
94277.3
94319.9
94389.8
94446.5
94543.1
94610.1
94731
94800.9
94932.5
94990.8
95080.6
94102.8
94100.6
94094.2
94077.1
94067.9
94043.2
94032.3
94006.4
93995.5
93972.9
93963.9
93947.2
93941.7
93932.1
93931.2
93929.3
93933.3
93939.2
93948
93961.2
93973.8
93993
94007.7
94030.4
94044.9
94066.7
94078.6
94093.5
94101.7
94103.3
94553.1
94543.1
94527.6
94498.7
94476.8
94440.9
94417.9
94382.9
94362.1
94332.7
94316.5
94295.3
94285.3
94273.6
94270.8
94269.4
94274.1
94283.2
94295.4
94314.6
94333.4
94361.5
94385.2
94419.5
94445.4
94480.8
94504.7
94533.4
94549.9
94560.2
94151.8
94150.9
94148.2
94142.6
94139
94130.3
94126.2
94116.3
94112.1
94102.6
94098.9
94091.2
94088.6
94083.6
94082.7
94081.2
94082.5
94084.6
94088.1
94093.7
94099.1
94107.4
94113.9
94123.6
94130.2
94139.2
94145
94151.1
94155
94156.2
94373.4
94371.6
94367.4
94360.4
94354
94343.9
94336.6
94325.5
94318.3
94307.8
94301.7
94293.3
94289.1
94283.7
94282.1
94280.6
94282
94284.8
94289.3
94296.1
94303.5
94313.6
94322.9
94334.7
94344.5
94355.8
94364.3
94372.4
94377.8
94380.1
94184.2
94184.2
94183.5
94182.2
94181.3
94178.9
94177.7
94174.6
94173.2
94169.6
94168.1
94164.6
94163.1
94160.4
94159.4
94157.9
94157.8
94157.9
94159
94161
94163.3
94166.7
94170
94174.2
94177.8
94181.9
94185
94187.8
94189.8
94190.5
94300
94299.8
94298.8
94297.4
94296
94293.6
94291.8
94288.7
94286.6
94283.2
94281
94277.7
94275.7
94273.1
94271.8
94270.4
94270.2
94270.5
94271.8
94273.9
94276.6
94280.2
94284
94288.5
94292.6
94296.9
94300.5
94303.6
94305.8
94306.6
94205.4
94205.6
94205.7
94205.8
94206
94205.9
94206
94205.3
94205.1
94204
94203.3
94201.7
94200.7
94199.1
94198.1
94196.7
94196.1
94195.6
94195.7
94196.2
94197.1
94198.6
94200.3
94202.4
94204.5
94206.6
94208.5
94210
94211.2
94211.6
94267.8
94267.9
94267.9
94267.9
94267.9
94267.8
94267.6
94267.1
94266.7
94265.7
94264.9
94263.5
94262.5
94261.1
94260.1
94259
94258.4
94258
94258.2
94258.7
94259.6
94261
94262.7
94264.6
94266.6
94268.6
94270.4
94271.8
94272.9
94273.3
94219.1
94219.2
94219.5
94219.8
94220.2
94220.5
94220.9
94221
94221.1
94220.8
94220.5
94219.8
94219.2
94218.3
94217.6
94216.7
94216.2
94215.7
94215.5
94215.6
94216
94216.7
94217.5
94218.6
94219.8
94220.9
94222
94222.8
94223.5
94223.7
94253.3
94253.3
94253.5
94253.6
94253.8
94254
94254.1
94254.1
94254.1
94253.8
94253.6
94253.1
94252.6
94252
94251.5
94250.9
94250.6
94250.3
94250.3
94250.4
94250.7
94251.3
94252
94252.9
94253.7
94254.6
94255.4
94256
94256.6
94256.7
94228
94227.9
94228.1
94228.2
94228.3
94228.4
94228.5
94228.6
94228.6
94228.5
94228.4
94228.2
94228
94227.7
94227.5
94227.2
94227.1
94226.9
94226.9
94227
94227.1
94227.4
94227.7
94228.1
94228.5
94228.9
94229.3
94229.6
94229.9
94229.9
94247.2
94247.1
94247.1
94246.9
94246.9
94246.7
94246.6
94246.5
94246.3
94246.2
94246.1
94246
94246
94246
94246
94246
94246.1
94246.2
94246.3
94246.4
94246.5
94246.7
94246.8
94247
94247.1
94247.2
94247.4
94247.4
94247.5
94247.4
94233.9
94233.7
94233.6
94233.3
94233.1
94232.8
94232.5
94232.2
94232
94231.9
94231.9
94231.9
94232.1
94232.3
94232.5
94232.8
94233.1
94233.3
94233.5
94233.7
94233.7
94233.7
94233.7
94233.5
94233.4
94233.2
94233
94232.8
94232.8
94232.6
94244.7
94244.4
94244.3
94243.8
94243.4
94242.9
94242.5
94242
94241.8
94241.6
94241.6
94241.7
94241.9
94242.3
94242.7
94243.2
94243.6
94244
94244.3
94244.5
94244.6
94244.5
94244.3
94244
94243.7
94243.3
94242.9
94242.5
94242.4
94242.2
94237.3
94237.1
94236.8
94236.3
94235.8
94235.2
94234.7
94234.2
94233.8
94233.7
94233.6
94233.8
94234.1
94234.6
94235.1
94235.7
94236.2
94236.7
94237.1
94237.3
94237.3
94237.2
94236.9
94236.4
94236
94235.4
94234.9
94234.4
94234.2
94233.9
94243.6
94243.3
94243
94242.5
94241.9
94241.2
94240.7
94240.1
94239.7
94239.5
94239.5
94239.6
94240
94240.4
94241
94241.6
94242.1
94242.6
94242.9
94243.1
94243.1
94242.9
94242.6
94242.1
94241.5
94240.9
94240.4
94239.8
94239.5
94239.3
94239.1
94238.9
94238.6
94238
94237.5
94236.9
94236.3
94235.8
94235.4
94235.2
94235.2
94235.3
94235.6
94236.1
94236.6
94237.1
94237.6
94238.1
94238.4
94238.6
94238.5
94238.3
94238
94237.5
94237
94236.3
94235.8
94235.3
94235
94234.8
94242.3
94242.2
94241.9
94241.4
94241
94240.4
94240
94239.5
94239.2
94239
94239
94239.1
94239.3
94239.7
94240.1
94240.6
94241.1
94241.4
94241.7
94241.8
94241.8
94241.6
94241.3
94240.9
94240.4
94239.9
94239.4
94239
94238.7
94238.5
94238.8
94238.6
94238.4
94238.1
94237.8
94237.4
94237.1
94236.7
94236.5
94236.4
94236.4
94236.5
94236.7
94237
94237.4
94237.7
94238.1
94238.4
94238.6
94238.7
94238.7
94238.6
94238.4
94238.1
94237.8
94237.4
94237
94236.7
94236.5
94236.4
94240.7
94240.6
94240.5
94240.3
94240.1
94239.9
94239.6
94239.4
94239.3
94239.2
94239.2
94239.3
94239.4
94239.6
94239.8
94240.1
94240.3
94240.5
94240.6
94240.7
94240.7
94240.6
94240.5
94240.3
94240.1
94239.9
94239.7
94239.5
94239.3
94239.3
94238.3
94238.3
94238.3
94238.2
94238.1
94238
94237.9
94237.8
94237.7
94237.7
94237.7
94237.7
94237.7
94237.8
94237.8
94237.9
94238
94238
94238
94238
94238
94238
94237.9
94237.8
94237.7
94237.6
94237.6
94237.5
94237.4
94237.4
SCALARS density float 1
LOOKUP_TABLE default
1.21224
1.21224
1.21224
1.21223
1.21223
1.21223
1.21223
1.21222
1.21222
1.21222
1.21222
1.21222
1.21222
1.21223
1.21223
1.21223
1.21224
1.21224
1.21224
1.21224
1.21224
1.21224
1.21224
1.21223
1.21223
1.21223
1.21223
1.21222
1.21222
1.21222
1.21245
1.21245
1.21245
1.21244
1.21244
1.21243
1.21243
1.21243
1.21242
1.21242
1.21242
1.21242
1.21243
1.21243
1.21243
1.21244
1.21244
1.21245
1.21245
1.21245
1.21245
1.21245
1.21245
1.21244
1.21244
1.21243
1.21243
1.21243
1.21242
1.21242
1.21233
1.21233
1.21233
1.21233
1.21232
1.21232
1.21232
1.21232
1.21232
1.21231
1.21231
1.21232
1.21232
1.21232
1.21232
1.21232
1.21233
1.21233
1.21233
1.21233
1.21233
1.21233
1.21233
1.21233
1.21232
1.21232
1.21232
1.21232
1.21231
1.21231
1.21234
1.21234
1.21234
1.21234
1.21234
1.21234
1.21234
1.21233
1.21233
1.21233
1.21233
1.21233
1.21233
1.21234
1.21234
1.21234
1.21234
1.21234
1.21234
1.21234
1.21234
1.21234
1.21234
1.21234
1.21234
1.21234
1.21234
1.21234
1.21233
1.21234
1.2124
1.2124
1.2124
1.2124
1.21241
1.21241
1.21241
1.21242
1.21242
1.21242
1.21242
1.21242
1.21242
1.21241
1.21241
1.21241
1.2124
1.2124
1.2124
1.2124
1.2124
1.2124
1.2124
1.2124
1.21241
1.21241
1.21241
1.21242
1.21242
1.21242
1.21223
1.21224
1.21224
1.21225
1.21226
1.21226
1.21227
1.21228
1.21228
1.21229
1.21229
1.21228
1.21228
1.21227
1.21226
1.21225
1.21225
1.21224
1.21224
1.21223
1.21223
1.21224
1.21224
1.21225
1.21226
1.21226
1.21227
1.21228
1.21228
1.21229
1.21244
1.21245
1.21245
1.21246
1.21248
1.21249
1.2125
1.21251
1.21252
1.21252
1.21252
1.21252
1.21251
1.2125
1.21249
1.21247
1.21246
1.21245
1.21244
1.21244
1.21244
1.21244
1.21245
1.21246
1.21247
1.21249
1.2125
1.21251
1.21252
1.21253
1.21213
1.21214
1.21215
1.21216
1.21218
1.2122
1.21221
1.21223
1.21224
1.21224
1.21224
1.21224
1.21223
1.21221
1.21219
1.21217
1.21216
1.21214
1.21213
1.21213
1.21213
1.21213
1.21214
1.21216
1.21218
1.2122
1.21221
1.21223
1.21224
1.21225
1.21249
1.2125
1.21251
1.21253
1.21255
1.21257
1.21259
1.21261
1.21262
1.21263
1.21263
1.21262
1.21261
1.21259
1.21257
1.21254
1.21252
1.21251
1.21249
1.21249
1.21249
1.2125
1.21251
1.21253
1.21255
1.21257
1.21259
1.21261
1.21262
1.21263
1.21203
1.21204
1.21205
1.21207
1.21209
1.21212
1.21214
1.21216
1.21217
1.21218
1.21218
1.21217
1.21215
1.21213
1.21211
1.21208
1.21206
1.21204
1.21203
1.21202
1.21202
1.21203
1.21205
1.21207
1.21209
1.21212
1.21214
1.21216
1.21217
1.21218
1.21259
1.21259
1.21261
1.21263
1.21265
1.21267
1.21269
1.21271
1.21272
1.21273
1.21273
1.21272
1.2127
1.21268
1.21266
1.21263
1.21261
1.21259
1.21258
1.21257
1.21257
1.21258
1.2126
1.21262
1.21264
1.21267
1.21269
1.21272
1.21273
1.21274
1.21194
1.21195
1.21196
1.21197
1.21199
1.21201
1.21203
1.21205
1.21206
1.21206
1.21206
1.21205
1.21203
1.21201
1.21199
1.21197
1.21195
1.21193
1.21192
1.21191
1.21191
1.21193
1.21194
1.21196
1.21199
1.21201
1.21204
1.21206
1.21207
1.21208
1.21274
1.21275
1.21276
1.21277
1.21278
1.2128
1.21281
1.21282
1.21283
1.21283
1.21282
1.21281
1.2128
1.21278
1.21276
1.21274
1.21272
1.21271
1.2127
1.2127
1.2127
1.21272
1.21273
1.21275
1.21277
1.2128
1.21282
1.21284
1.21285
1.21286
1.21185
1.21185
1.21186
1.21186
1.21187
1.21188
1.21188
1.21188
1.21188
1.21188
1.21187
1.21186
1.21185
1.21183
1.21182
1.2118
1.21179
1.21178
1.21178
1.21178
1.21179
1.2118
1.21182
1.21184
1.21186
1.21188
1.2119
1.21192
1.21193
1.21193
1.213
1.21299
1.21299
1.21299
1.21298
1.21298
1.21297
1.21296
1.21295
1.21294
1.21292
1.21291
1.2129
1.21288
1.21287
1.21287
1.21286
1.21286
1.21287
1.21287
1.21289
1.2129
1.21292
1.21294
1.21296
1.21299
1.213
1.21302
1.21303
1.21303
1.21179
1.21177
1.21177
1.21175
1.21173
1.21171
1.21169
1.21166
1.21164
1.21161
1.2116
1.21158
1.21156
1.21155
1.21155
1.21154
1.21155
1.21156
1.21157
1.21159
1.2116
1.21163
1.21165
1.21168
1.2117
1.21172
1.21174
1.21176
1.21176
1.21177
1.21341
1.21339
1.21337
1.21333
1.2133
1.21325
1.21321
1.21315
1.21311
1.21306
1.21303
1.213
1.21298
1.21297
1.21296
1.21297
1.21298
1.21301
1.21303
1.21306
1.21309
1.21314
1.21317
1.21321
1.21324
1.21328
1.2133
1.21333
1.21334
1.21335
1.21179
1.21175
1.21173
1.21165
1.2116
1.21151
1.21145
1.21135
1.21129
1.21122
1.21117
1.21112
1.21109
1.21107
1.21107
1.21108
1.21111
1.21114
1.21118
1.21124
1.21128
1.21135
1.21139
1.21147
1.21151
1.21157
1.2116
1.21165
1.21167
1.21169
1.21416
1.2141
1.21405
1.21393
1.21383
1.21368
1.21356
1.21341
1.2133
1.21317
1.21308
1.213
1.21295
1.21292
1.21291
1.21293
1.21296
1.21302
1.21308
1.21318
1.21326
1.21338
1.21347
1.21359
1.21368
1.2138
1.21386
1.21396
1.21399
1.21404
1.21215
1.21203
1.21197
1.21172
1.2116
1.21132
1.21116
1.2109
1.21075
1.21055
1.21043
1.2103
1.21023
1.21017
1.21016
1.21018
1.21022
1.21031
1.21039
1.21053
1.21064
1.21084
1.21096
1.21119
1.21131
1.21154
1.21163
1.21184
1.21188
1.21199
1.21583
1.21559
1.21546
1.21504
1.21479
1.21434
1.21405
1.21363
1.21337
1.21304
1.21284
1.21263
1.21251
1.21241
1.21239
1.21241
1.21246
1.21259
1.21272
1.21295
1.21314
1.21346
1.21369
1.21408
1.21432
1.21474
1.21495
1.21533
1.21544
1.21567
1.21416
1.21342
1.21323
1.21227
1.21193
1.21105
1.21068
1.20998
1.20965
1.20914
1.2089
1.20858
1.20844
1.20829
1.20825
1.20827
1.20834
1.20851
1.20867
1.20899
1.20923
1.20972
1.21003
1.21069
1.21103
1.21186
1.21216
1.21308
1.21325
1.21397
1.22056
1.21891
1.21847
1.21687
1.21619
1.21485
1.21419
1.21316
1.21263
1.2119
1.21152
1.21107
1.21085
1.21064
1.21057
1.21059
1.21067
1.21091
1.21114
1.21161
1.21197
1.2127
1.21319
1.21422
1.21481
1.21616
1.21676
1.21837
1.21875
1.22044
1.22458
1.2177
1.2169
1.21274
1.21179
1.20932
1.20851
1.20703
1.20643
1.20555
1.20516
1.20467
1.20445
1.20423
1.20417
1.20418
1.20426
1.20449
1.20472
1.20521
1.2056
1.20647
1.20705
1.2085
1.20928
1.21169
1.21261
1.21672
1.21747
1.22432
1.23116
1.22351
1.22046
1.21611
1.21452
1.21186
1.21087
1.20923
1.20858
1.20757
1.20715
1.20658
1.20635
1.2061
1.20602
1.20603
1.20611
1.20638