# vtk DataFile Version 3.0
Structured Grid Example
ASCII
DATASET STRUCTURED_GRID
DIMENSIONS 60 120 1
POINTS 7200 FLOAT
0.0208333 0.00833333 0
0.0208333 0.025 0
0.0208333 0.0416667 0
0.0208332 0.0583333 0
0.0208332 0.075 0
0.0208332 0.0916667 0
0.0208332 0.108333 0
0.0208331 0.125 0
0.0208331 0.141667 0
0.0208331 0.158333 0
0.0208331 0.175 0
0.020833 0.191667 0
0.020833 0.208333 0
0.020833 0.225 0
0.020833 0.241667 0
0.020833 0.258333 0
0.0208329 0.275 0
0.0208329 0.291667 0
0.0208329 0.308333 0
0.0208329 0.325 0
0.0208329 0.341667 0
0.0208329 0.358333 0
0.0208329 0.375 0
0.0208328 0.391667 0
0.0208328 0.408333 0
0.0208328 0.425 0
0.0208328 0.441667 0
0.0208328 0.458333 0
0.0208328 0.475 0
0.0208328 0.491667 0
0.0208328 0.508333 0
0.0208328 0.525 0
0.0208328 0.541667 0
0.0208328 0.558333 0
0.0208328 0.575 0
0.0208328 0.591667 0
0.0208328 0.608333 0
0.0208329 0.625 0
0.0208329 0.641667 0
0.0208329 0.658333 0
0.0208329 0.675 0
0.0208329 0.691667 0
0.0208329 0.708333 0
0.0208329 0.725 0
0.020833 0.741667 0
0.020833 0.758333 0
0.020833 0.775 0
0.020833 0.791667 0
0.020833 0.808333 0
0.0208331 0.825 0
0.0208331 0.841667 0
0.0208331 0.858333 0
0.0208331 0.875 0
0.0208332 0.891667 0
0.0208332 0.908333 0
0.0208332 0.925 0
0.0208332 0.941667 0
0.0208333 0.958333 0
0.0208333 0.975 0
0.0208333 0.991667 0
0.0625 0.00833334 0
0.0624999 0.025 0
0.0624998 0.0416667 0
0.0624997 0.0583333 0
0.0624996 0.075 0
0.0624996 0.0916667 0
0.0624995 0.108333 0
0.0624994 0.125 0
0.0624993 0.141667 0
0.0624993 0.158333 0
0.0624992 0.175 0
0.0624991 0.191667 0
0.062499 0.208333 0
0.062499 0.225 0
0.0624989 0.241667 0
0.0624989 0.258333 0
0.0624988 0.275 0
0.0624988 0.291667 0
0.0624987 0.308333 0
0.0624987 0.325 0
0.0624986 0.341667 0
0.0624986 0.358333 0
0.0624986 0.375 0
0.0624985 0.391667 0
0.0624985 0.408333 0
0.0624985 0.425 0
0.0624985 0.441667 0
0.0624984 0.458333 0
0.0624984 0.475 0
0.0624984 0.491667 0
0.0624984 0.508333 0
0.0624984 0.525 0
0.0624984 0.541667 0
0.0624985 0.558333 0
0.0624985 0.575 0
0.0624985 0.591667 0
0.0624985 0.608333 0
0.0624986 0.625 0
0.0624986 0.641667 0
0.0624986 0.658333 0
0.0624987 0.675 0
0.0624987 0.691667 0
0.0624988 0.708333 0
0.0624988 0.725 0
0.0624989 0.741667 0
0.0624989 0.758333 0
0.062499 0.775 0
0.062499 0.791667 0
0.0624991 0.808333 0
0.0624992 0.825 0
0.0624993 0.841667 0
0.0624993 0.858333 0
0.0624994 0.875 0
0.0624995 0.891667 0
0.0624996 0.908333 0
0.0624996 0.925 0
0.0624997 0.941667 0
0.0624998 0.958333 0
0.0624999 0.975 0
0.0625 0.991667 0
0.104167 0.00833334 0
0.104166 0.025 0
0.104166 0.0416667 0
0.104166 0.0583334 0
0.104166 0.075 0
0.104166 0.0916667 0
0.104166 0.108333 0
0.104166 0.125 0
0.104166 0.141667 0
0.104165 0.158333 0
0.104165 0.175 0
0.104165 0.191667 0
0.104165 0.208333 0
0.104165 0.225 0
0.104165 0.241667 0
0.104165 0.258333 0
0.104165 0.275 0
0.104165 0.291667 0
0.104164 0.308333 0
0.104164 0.325 0
0.104164 0.341667 0
0.104164 0.358333 0
0.104164 0.375 0
0.104164 0.391667 0
0.104164 0.408333 0
0.104164 0.425 0
0.104164 0.441667 0
0.104164 0.458333 0
0.104164 0.475 0
0.104164 0.491667 0
0.104164 0.508333 0
0.104164 0.525 0
0.104164 0.541667 0
0.104164 0.558333 0
0.104164 0.575 0
0.104164 0.591667 0
0.104164 0.608333 0
0.104164 0.625 0
0.104164 0.641667 0
0.104164 0.658333 0
0.104164 0.675 0
0.104164 0.691667 0
0.104165 0.708333 0
0.104165 0.725 0
0.104165 0.741667 0
0.104165 0.758333 0
0.104165 0.775 0
0.104165 0.791667 0
0.104165 0.808333 0
0.104165 0.825 0
0.104165 0.841667 0
0.104166 0.858333 0
0.104166 0.875 0
0.104166 0.891667 0
0.104166 0.908333 0
0.104166 0.925 0
0.104166 0.941667 0
0.104166 0.958333 0
0.104166 0.975 0
0.104167 0.991667 0
0.145833 0.00833334 0
0.145833 0.025 0
0.145833 0.0416667 0
0.145833 0.0583334 0
0.145832 0.0750001 0
0.145832 0.0916667 0
0.145832 0.108333 0
0.145832 0.125 0
0.145832 0.141667 0
0.145832 0.158333 0
0.145831 0.175 0
0.145831 0.191667 0
0.145831 0.208333 0
0.145831 0.225 0
0.145831 0.241667 0
0.145831 0.258333 0
0.14583 0.275 0
0.14583 0.291667 0
0.14583 0.308333 0
0.14583 0.325 0
0.14583 0.341667 0
0.14583 0.358333 0
0.14583 0.375 0
0.14583 0.391667 0
0.14583 0.408333 0
0.14583 0.425 0
0.14583 0.441667 0
0.14583 0.458333 0
0.14583 0.475 0
0.14583 0.491667 0
0.14583 0.508333 0
0.14583 0.525 0
0.14583 0.541667 0
0.14583 0.558333 0
0.14583 0.575 0
0.14583 0.591667 0
0.14583 0.608333 0
0.14583 0.625 0
0.14583 0.641667 0
0.14583 0.658333 0
0.14583 0.675 0
0.14583 0.691667 0
0.14583 0.708333 0
0.14583 0.725 0
0.145831 0.741667 0
0.145831 0.758333 0
0.145831 0.775 0
0.145831 0.791667 0
0.145831 0.808333 0
0.145831 0.825 0
0.145832 0.841667 0
0.145832 0.858333 0
0.145832 0.875 0
0.145832 0.891667 0
0.145832 0.908333 0
0.145832 0.925 0
0.145833 0.941667 0
0.145833 0.958333 0
0.145833 0.975 0
0.145833 0.991667 0
0.1875 0.00833334 0
0.1875 0.025 0
0.187499 0.0416667 0
0.187499 0.0583334 0
0.187499 0.0750001 0
0.187499 0.0916668 0
0.187498 0.108333 0
0.187498 0.125 0
0.187498 0.141667 0
0.187498 0.158333 0
0.187497 0.175 0
0.187497 0.191667 0
0.187497 0.208333 0
0.187497 0.225 0
0.187497 0.241667 0
0.187496 0.258333 0
0.187496 0.275 0
0.187496 0.291667 0
0.187496 0.308333 0
0.187496 0.325 0
0.187496 0.341667 0
0.187496 0.358333 0
0.187495 0.375 0
0.187495 0.391667 0
0.187495 0.408333 0
0.187495 0.425 0
0.187495 0.441667 0
0.187495 0.458333 0
0.187495 0.475 0
0.187495 0.491667 0
0.187495 0.508333 0
0.187495 0.525 0
0.187495 0.541667 0
0.187495 0.558333 0
0.187495 0.575 0
0.187495 0.591667 0
0.187495 0.608333 0
0.187495 0.625 0
0.187496 0.641667 0
0.187496 0.658333 0
0.187496 0.675 0
0.187496 0.691667 0
0.187496 0.708333 0
0.187496 0.725 0
0.187496 0.741667 0
0.187497 0.758333 0
0.187497 0.775 0
0.187497 0.791667 0
0.187497 0.808333 0
0.187497 0.825 0
0.187498 0.841667 0
0.187498 0.858333 0
0.187498 0.875 0
0.187498 0.891667 0
0.187499 0.908333 0
0.187499 0.925 0
0.187499 0.941667 0
0.187499 0.958333 0
0.1875 0.975 0
0.1875 0.991667 0
0.229167 0.00833334 0
0.229166 0.025 0
0.229166 0.0416667 0
0.229166 0.0583334 0
0.229165 0.0750001 0
0.229165 0.0916668 0
0.229165 0.108333 0
0.229164 0.125 0
0.229164 0.141667 0
0.229164 0.158334 0
0.229163 0.175 0
0.229163 0.191667 0
0.229163 0.208334 0
0.229163 0.225 0
0.229162 0.241667 0
0.229162 0.258334 0
0.229162 0.275 0
0.229162 0.291667 0
0.229162 0.308334 0
0.229161 0.325 0
0.229161 0.341667 0
0.229161 0.358334 0
0.229161 0.375 0
0.229161 0.391667 0
0.229161 0.408333 0
0.229161 0.425 0
0.229161 0.441667 0
0.22916 0.458333 0
0.22916 0.475 0
0.22916 0.491667 0
0.22916 0.508333 0
0.22916 0.525 0
0.22916 0.541667 0
0.229161 0.558333 0
0.229161 0.575 0
0.229161 0.591667 0
0.229161 0.608333 0
0.229161 0.625 0
0.229161 0.641666 0
0.229161 0.658333 0
0.229161 0.675 0
0.229162 0.691666 0
0.229162 0.708333 0
0.229162 0.725 0
0.229162 0.741666 0
0.229162 0.758333 0
0.229163 0.775 0
0.229163 0.791666 0
0.229163 0.808333 0
0.229163 0.825 0
0.229164 0.841666 0
0.229164 0.858333 0
0.229164 0.875 0
0.229165 0.891667 0
0.229165 0.908333 0
0.229165 0.925 0
0.229166 0.941667 0
0.229166 0.958333 0
0.229166 0.975 0
0.229167 0.991667 0
0.270833 0.00833335 0
0.270833 0.025 0
0.270832 0.0416667 0
0.270832 0.0583334 0
0.270832 0.0750001 0
0.270831 0.0916668 0
0.270831 0.108334 0
0.27083 0.125 0
0.27083 0.141667 0
0.27083 0.158334 0
0.270829 0.175 0
0.270829 0.191667 0
0.270829 0.208334 0
0.270828 0.225 0
0.270828 0.241667 0
0.270828 0.258334 0
0.270828 0.275 0
0.270827 0.291667 0
0.270827 0.308334 0
0.270827 0.325 0
0.270827 0.341667 0
0.270826 0.358334 0
0.270826 0.375 0
0.270826 0.391667 0
0.270826 0.408333 0
0.270826 0.425 0
0.270826 0.441667 0
0.270826 0.458333 0
0.270826 0.475 0
0.270826 0.491667 0
0.270826 0.508333 0
0.270826 0.525 0
0.270826 0.541667 0
0.270826 0.558333 0
0.270826 0.575 0
0.270826 0.591667 0
0.270826 0.608333 0
0.270826 0.625 0
0.270826 0.641666 0
0.270827 0.658333 0
0.270827 0.675 0
0.270827 0.691666 0
0.270827 0.708333 0
0.270828 0.725 0
0.270828 0.741666 0
0.270828 0.758333 0
0.270828 0.775 0
0.270829 0.791666 0
0.270829 0.808333 0
0.270829 0.825 0
0.27083 0.841666 0
0.27083 0.858333 0
0.27083 0.875 0
0.270831 0.891666 0
0.270831 0.908333 0
0.270832 0.925 0
0.270832 0.941667 0
0.270832 0.958333 0
0.270833 0.975 0
0.270833 0.991667 0
0.3125 0.00833335 0
0.312499 0.0250001 0
0.312499 0.0416668 0
0.312498 0.0583335 0
0.312498 0.0750002 0
0.312497 0.0916669 0
0.312497 0.108334 0
0.312497 0.125 0
0.312496 0.141667 0
0.312496 0.158334 0
0.312495 0.175 0
0.312495 0.191667 0
0.312494 0.208334 0
0.312494 0.225 0
0.312494 0.241667 0
0.312493 0.258334 0
0.312493 0.275 0
0.312493 0.291667 0
0.312492 0.308334 0
0.312492 0.325 0
0.312492 0.341667 0
0.312492 0.358334 0
0.312492 0.375 0
0.312491 0.391667 0
0.312491 0.408334 0
0.312491 0.425 0
0.312491 0.441667 0
0.312491 0.458333 0
0.312491 0.475 0
0.312491 0.491667 0
0.312491 0.508333 0
0.312491 0.525 0
0.312491 0.541667 0
0.312491 0.558333 0
0.312491 0.575 0
0.312491 0.591666 0
0.312491 0.608333 0
0.312492 0.625 0
0.312492 0.641666 0
0.312492 0.658333 0
0.312492 0.675 0
0.312492 0.691666 0
0.312493 0.708333 0
0.312493 0.725 0
0.312493 0.741666 0
0.312494 0.758333 0
0.312494 0.775 0
0.312494 0.791666 0
0.312495 0.808333 0
0.312495 0.825 0
0.312496 0.841666 0
0.312496 0.858333 0
0.312497 0.875 0
0.312497 0.891666 0
0.312497 0.908333 0
0.312498 0.925 0
0.312498 0.941667 0
0.312499 0.958333 0
0.312499 0.975 0
0.3125 0.991667 0
0.354166 0.00833336 0
0.354166 0.0250001 0
0.354165 0.0416668 0
0.354165 0.0583335 0
0.354164 0.0750002 0
0.354164 0.0916669 0
0.354163 0.108334 0
0.354163 0.125 0
0.354162 0.141667 0
0.354162 0.158334 0
0.354161 0.175 0
0.354161 0.191667 0
0.35416 0.208334 0
0.35416 0.225 0
0.354159 0.241667 0
0.354159 0.258334 0
0.354158 0.275 0
0.354158 0.291667 0
0.354158 0.308334 0
0.354157 0.325 0
0.354157 0.341667 0
0.354157 0.358334 0
0.354157 0.375 0
0.354157 0.391667 0
0.354156 0.408334 0
0.354156 0.425 0
0.354156 0.441667 0
0.354156 0.458333 0
0.354156 0.475 0
0.354156 0.491667 0
0.354156 0.508333 0
0.354156 0.525 0
0.354156 0.541667 0
[...]
POINT_DATA 7200
SCALARS pressure float 1
LOOKUP_TABLE default
81660.9
81660.9
81660.9
81660.9
81660.9
81660.9
81660.9
81660.9
81660.9
81660.9
81660.9
81660.9
81660.9
81660.8
81660.8
81660.8
81660.8
81660.8
81660.8
81660.8
81660.8
81660.8
81660.8
81660.8
81660.8
81660.8
81660.8
81660.8
81660.8
81660.8
81660.8
81660.8
81660.8
81660.8
81660.8
81660.8
81660.8
81660.8
81660.8
81660.8
81660.8
81660.8
81660.8
81660.8
81660.8
81660.8
81660.8
81660.8
81660.8
81660.9
81660.9
81660.9
81660.9
81660.9
81660.9
81660.9
81660.9
81660.9
81660.9
81660.9
81593.2
81593.2
81593.2
81593.2
81593.2
81593.2
81593.2
81593.2
81593.2
81593.2
81593.2
81593.2
81593.2
81593.2
81593.2
81593.1
81593.1
81593.1
81593.1
81593.1
81593.1
81593.1
81593.1
81593.1
81593.1
81593.1
81593.1
81593.1
81593.1
81593.1
81593.1
81593.1
81593.1
81593.1
81593.1
81593.1
81593.1
81593.1
81593.1
81593.1
81593.1
81593.1
81593.1
81593.1
81593.1
81593.2
81593.2
81593.2
81593.2
81593.2
81593.2
81593.2
81593.2
81593.2
81593.2
81593.2
81593.2
81593.2
81593.3
81593.3
81649.3
81649.3
81649.3
81649.3
81649.3
81649.3
81649.3
81649.3
81649.3
81649.3
81649.3
81649.3
81649.3
81649.3
81649.3
81649.3
81649.3
81649.3
81649.3
81649.3
81649.3
81649.3
81649.3
81649.3
81649.3
81649.2
81649.2
81649.2
81649.2
81649.2
81649.2
81649.2
81649.2
81649.2
81649.2
81649.2
81649.2
81649.3
81649.3
81649.3
81649.3
81649.3
81649.3
81649.3
81649.3
81649.3
81649.3
81649.3
81649.3
81649.3
81649.3
81649.3
81649.3
81649.3
81649.3
81649.3
81649.3
81649.3
81649.3
81649.3
81604.4
81604.4
81604.4
81604.4
81604.4
81604.4
81604.4
81604.4
81604.4
81604.4
81604.4
81604.4
81604.4
81604.4
81604.4
81604.4
81604.3
81604.3
81604.3
81604.3
81604.3
81604.3
81604.3
81604.3
81604.3
81604.3
81604.3
81604.3
81604.3
81604.3
81604.3
81604.3
81604.3
81604.3
81604.3
81604.3
81604.3
81604.3
81604.3
81604.3
81604.3
81604.3
81604.3
81604.3
81604.4
81604.4
81604.4
81604.4
81604.4
81604.4
81604.4
81604.4
81604.4
81604.4
81604.4
81604.4
81604.4
81604.4
81604.4
81604.4
81640.9
81640.9
81640.9
81640.9
81640.9
81640.9
81640.9
81640.9
81640.9
81640.9
81640.9
81640.9
81640.9
81640.9
81640.9
81640.9
81640.9
81640.9
81640.9
81640.9
81640.9
81640.9
81640.9
81640.9
81640.9
81640.9
81640.9
81640.9
81640.9
81640.9
81640.9
81640.9
81640.9
81640.9
81640.9
81640.9
81640.9
81640.9
81640.9
81640.9
81640.9
81640.9
81640.9
81640.9
81640.9
81640.9
81640.9
81640.9
81640.9
81640.9
81640.9
81640.9
81640.9
81640.9
81640.9
81640.9
81640.9
81640.9
81640.9
81640.9
81610.6
81610.6
81610.6
81610.6
81610.5
81610.5
81610.5
81610.5
81610.5
81610.5
81610.5
81610.5
81610.5
81610.5
81610.5
81610.5
81610.5
81610.5
81610.5
81610.5
81610.5
81610.5
81610.5
81610.5
81610.5
81610.5
81610.5
81610.5
81610.5
81610.5
81610.5
81610.5
81610.5
81610.5
81610.5
81610.5
81610.5
81610.5
81610.5
81610.5
81610.5
81610.5
81610.5
81610.5
81610.5
81610.5
81610.5
81610.5
81610.5
81610.5
81610.5
81610.5
81610.5
81610.5
81610.5
81610.5
81610.6
81610.6
81610.6
81610.6
81636.5
81636.5
81636.5
81636.5
81636.5
81636.5
81636.5
81636.5
81636.5
81636.5
81636.5
81636.5
81636.5
81636.5
81636.5
81636.5
81636.4
81636.4
81636.4
81636.4
81636.4
81636.4
81636.4
81636.4
81636.4
81636.4
81636.4
81636.4
81636.4
81636.4
81636.4
81636.4
81636.4
81636.4
81636.4
81636.4
81636.4
81636.4
81636.4
81636.4
81636.4
81636.4
81636.4
81636.4
81636.4
81636.4
81636.4
81636.4
81636.4
81636.4
81636.4
81636.4
81636.4
81636.4
81636.4
81636.4
81636.4
81636.4
81636.4
81636.4
81613.7
81613.7
81613.7
81613.7
81613.7
81613.6
81613.6
81613.6
81613.6
81613.6
81613.6
81613.6
81613.6
81613.6
81613.6
81613.6
81613.6
81613.6
81613.6
81613.6
81613.6
81613.6
81613.6
81613.6
81613.6
81613.6
81613.6
81613.6
81613.6
81613.6
81613.6
81613.6
81613.6
81613.6
81613.6
81613.6
81613.6
81613.6
81613.6
81613.6
81613.6
81613.6
81613.6
81613.6
81613.6
81613.6
81613.6
81613.6
81613.6
81613.6
81613.6
81613.6
81613.6
81613.6
81613.6
81613.7
81613.7
81613.7
81613.7
81613.7
81634.4
81634.4
81634.4
81634.4
81634.4
81634.4
81634.4
81634.4
81634.4
81634.4
81634.4
81634.4
81634.4
81634.4
81634.4
81634.4
81634.4
81634.4
81634.4
81634.4
81634.4
81634.4
81634.4
81634.4
81634.4
81634.4
81634.4
81634.4
81634.4
81634.4
81634.4
81634.4
81634.4
81634.4
81634.4
81634.4
81634.4
81634.4
81634.4
81634.4
81634.4
81634.4
81634.4
81634.4
81634.4
81634.4
81634.4
81634.4
81634.4
81634.4
81634.4
81634.4
81634.4
81634.4
81634.4
81634.4
81634.4
81634.4
81634.4
81634.4
81614.9
81614.9
81614.9
81614.9
81614.9
81614.9
81614.9
81614.9
81614.9
81614.9
81614.9
81614.9
81614.9
81614.9
81614.9
81614.9
81614.9
81614.9
81614.9
81614.9
81614.9
81614.8
81614.8
81614.8
81614.8
81614.8
81614.8
81614.8
81614.8
81614.8
81614.8
81614.8
81614.8
81614.8
81614.8
81614.8
81614.8
81614.8
81614.8
81614.9
81614.9
81614.9
81614.9
81614.9
81614.9
81614.9
81614.9
81614.9
81614.9
81614.9
81614.9
81614.9
81614.9
81614.9
81614.9
81614.9
81614.9
81614.9
81614.9
81614.9
81633.8
81633.8
81633.8
81633.8
81633.8
81633.8
81633.8
81633.8
81633.8
81633.8
81633.8
81633.8
81633.7
81633.7
81633.7
81633.7
81633.7
81633.7
81633.7
81633.7
81633.7
81633.7
81633.7
81633.7
81633.7
81633.7
81633.7
81633.7
81633.7
81633.7
81633.7
81633.7
81633.7
81633.7
81633.7
81633.7
81633.7
81633.7
81633.7
81633.7
81633.7
81633.7
81633.7
81633.7
81633.7
81633.7
81633.7
81633.7
81633.7
81633.7
81633.7
81633.7
81633.7
81633.7
81633.7
81633.7
81633.7
81633.7
81633.7
81633.7
81615.1
81615.1
81615.1
81615.1
81615.1
81615.1
81615.1
81615.1
81615.1
81615.1
81615.1
81615.1
81615.1
81615
81615
81615
81615
81615
81615
81615
81615
81615
81615
81614.9
81614.9
81614.9
81614.9
81614.9
81614.9
81614.9
81614.9
81614.9
81614.9
81614.9
81614.9
81614.9
81614.9
81615
81615
81615
81615
81615
81615
81615
81615
81615
81615
81615
81615.1
81615.1
81615.1
81615.1
81615.1
81615.1
81615.1
81615.1
81615.1
81615.1
81615.1
81615.1
81634
81634
81634
81634
81634
81634
81634
81634
81634
81634
81634
81634
81634
81634
81634
81634
81634
81634
81634
81634
81634
81634
81634
81634
81634
81634
81634
81634
81634
81634
81634
81634
81634
81634
81634
81634
81634
81634
81634
81634
81634
81634
81634
81634
81634
81634
81634
81634
81634
81634
81634
81634
81634
81634
81634
81634
81634
81634
81634
81634
81614.6
81614.6
81614.6
81614.6
81614.6
81614.6
81614.6
81614.5
81614.5
81614.5
81614.5
81614.5
81614.5
81614.4
81614.4
81614.4
81614.4
81614.4
81614.4
81614.3
81614.3
81614.3
81614.3
81614.3
81614.3
81614.3
81614.3
81614.2
81614.2
81614.2
81614.2
81614.2
81614.2
81614.3
81614.3
81614.3
81614.3
81614.3
81614.3
81614.3
81614.3
81614.4
81614.4
81614.4
81614.4
81614.4
81614.4
81614.5
81614.5
81614.5
81614.5
81614.5
81614.5
81614.6
81614.6
81614.6
81614.6
81614.6
81614.6
81614.6
81635
81635
81635
81635
81635
81635
81635
81634.9
81634.9
81634.9
81634.9
81634.9
81634.9
81634.9
81634.9
81634.9
81634.9
81634.9
81634.9
81634.9
81634.9
81634.9
81634.9
81634.9
81634.9
81634.9
81634.9
81634.9
81634.9
81634.9
81634.9
81634.9
81634.9
81634.9
81634.9
81634.9
81634.9
81634.9
81634.9
81634.9
81634.9
81634.9
81634.9
81634.9
81634.9
81634.9
81634.9
81634.9
81634.9
81634.9
81634.9
81634.9
81634.9
81634.9
81634.9
81634.9
81634.9
81634.9
81634.9
81634.9
81613.6
81613.6
81613.6
81613.6
81613.6
81613.5
81613.5
81613.5
81613.5
81613.4
81613.4
81613.4
81613.4
81613.3
81613.3
81613.3
81613.2
81613.2
81613.2
81613.1
81613.1
81613.1
81613.1
81613
81613
81613
81613
81613
81613
81613
81613
81613
81613
81613
81613
81613
81613
81613
81613.1
81613.1
81613.1
81613.2
81613.2
81613.2
81613.3
81613.3
81613.3
81613.3
81613.4
81613.4
81613.4
81613.5
81613.5
81613.5
81613.5
81613.5
81613.6
81613.6
81613.6
81613.6
81636.4
81636.4
81636.4
81636.4
81636.4
81636.4
81636.4
81636.4
81636.4
81636.4
81636.3
81636.3
81636.3
81636.3
81636.3
81636.3
81636.3
81636.3
81636.3
81636.3
81636.2
81636.2
81636.2
81636.2
81636.2
81636.2
81636.2
81636.2
81636.2
81636.2
81636.2
81636.2
81636.2
81636.2
81636.2
81636.2
81636.2
81636.2
81636.2
81636.2
81636.2
81636.2
81636.2
81636.2
81636.2
81636.2
81636.3
81636.3
81636.3
81636.3
81636.3
81636.3
81636.3
81636.3
81636.3
81636.3
81636.3
81636.3
81636.3
81636.3
81612.2
81612.2
81612.2
81612.2
81612.2
81612.2
81612.1
81612.1
81612
81612
81611.9
81611.9
81611.8
81611.8
81611.7
81611.7
81611.6
81611.5
81611.5
81611.4
81611.4
81611.3
81611.3
81611.2
81611.2
81611.2
81611.2
81611.1
81611.1
81611.1
81611.1
81611.1
81611.1
81611.2
81611.2
81611.2
81611.2
81611.3
81611.3
81611.4
81611.4
81611.5
81611.5
81611.6
81611.6
81611.7
81611.8
81611.8
81611.9
81611.9
81612
81612
81612.1
81612.1
81612.1
81612.2
81612.2
81612.2
81612.2
81612.2
81638.3
81638.3
81638.3
81638.3
81638.3
81638.3
81638.3
81638.3
81638.2
81638.2
81638.2
81638.2
81638.2
81638.1
81638.1
81638.1
81638.1
81638.1
81638
81638
81638
81638
81637.9
81637.9
81637.9
81637.9
81637.9
81637.9
81637.9
81637.9
81637.9
81637.9
81637.9
81637.9
81637.9
81637.9
81637.9
81637.9
81637.9
81637.9
81638
81638
81638
81638
81638
81638
81638.1
81638.1
81638.1
81638.1
81638.1
81638.1
81638.2
81638.2
81638.2
81638.2
81638.2
81638.2
81638.2
81638.2
81610.7
81610.7
81610.6
81610.6
81610.6
81610.5
81610.5
81610.4
81610.3
81610.2
81610.1
81610
81609.9
81609.8
81609.7
81609.6
81609.5
81609.4
81609.3
81609.2
81609.1
81609.1
81609
81608.9
81608.8
81608.8
81608.8
81608.7
81608.7
81608.7
81608.7
81608.7
81608.7
81608.7
81608.8
81608.8
81608.9
81609
81609
81609.1
81609.2
81609.3
81609.4
81609.5
81609.6
81609.7
81609.8
81609.9
81610
81610.1
81610.2
81610.3
81610.4
81610.4
81610.5
81610.5
81610.6
81610.6
81610.6
81610.7
81640.8
81640.8
81640.8
81640.7
81640.7
81640.7
81640.7
81640.6
81640.6
81640.6
81640.5
81640.5
81640.4
81640.4
81640.4
81640.3
81640.3
81640.2
81640.2
81640.1
81640.1
81640.1
81640
81640
81640
81639.9
81639.9
81639.9
81639.9
81639.9
81639.9
81639.9
81639.9
81639.9
81639.9
81639.9
81639.9
81640
81640
81640
81640.1
81640.1
81640.1
81640.2
81640.2
81640.2
81640.3
81640.3
81640.4
81640.4
81640.4
81640.5
81640.5
81640.5
81640.6
81640.6
81640.6
81640.6
81640.6
81640.6
81609
81609
81609
81608.9
81608.8
81608.7
81608.6
81608.5
81608.4
81608.2
81608.1
81607.9
81607.7
81607.5
81607.3
81607.2
81607
81606.8
81606.6
81606.4
81606.3
81606.1
81606
81605.9
81605.8
81605.7
81605.6
81605.5
81605.5
81605.5
81605.5
81605.5
81605.5
81605.6
81605.7
81605.8
81605.9
81606
81606.1
81606.3
81606.4
81606.6
81606.8
81607
81607.1
81607.3
81607.5
81607.7
81607.9
81608
81608.2
81608.3
81608.5
81608.6
81608.7
81608.8
81608.9
81608.9
81609
81609
81643.9
81643.9
81643.9
81643.8
81643.8
81643.8
81643.7
81643.6
81643.6
81643.5
81643.4
81643.3
81643.2
81643.1
81643
81643
81642.9
81642.8
81642.7
81642.6
81642.5
81642.4
81642.4
81642.3
81642.2
81642.2
81642.1
81642.1
81642.1
81642.1
81642.1
81642.1
81642.1
81642.1
81642.1
81642.2
81642.2
81642.3
81642.4
81642.4
81642.5
81642.6
81642.7
81642.7
81642.8
81642.9
81643
81643.1
81643.2
81643.2
81643.3
81643.4
81643.4
81643.5
81643.6
81643.6
81643.6
81643.7
81643.7
81643.7
81607.6
81607.5
81607.5
81607.3
81607.2
81607
81606.8
81606.6
81606.4
81606.1
81605.8
81605.5
81605.2
81604.8
81604.5
81604.2
81603.9
81603.5
81603.2
81602.9
81602.6
81602.4
81602.1
81601.9
81601.7
81601.5
81601.4
81601.3
81601.2
81601.2
81601.2
81601.2
81601.3
81601.4
81601.5
81601.7
81601.9
81602.1
81602.3
81602.6
81602.9
81603.2
81603.5
81603.8
81604.2
81604.5
81604.8
81605.2
81605.4
81605.8
81606
81606.3
81606.6
81606.8
81607
81607.2
81607.3
81607.4
81607.5
81607.5
81648
81647.9
81647.9
81647.8
81647.8
81647.7
81647.6
81647.4
81647.3
81647.1
81647
81646.8
81646.6
81646.4
81646.2
81646.1
81645.9
81645.7
81645.5
81645.4
81645.2
81645
81644.9
81644.8
81644.6
81644.6
81644.5
81644.4
81644.4
81644.3
81644.3
81644.3
81644.4
81644.4
81644.5
81644.6
81644.7
81644.8
81644.9
81645
81645.2
81645.4
81645.5
81645.7
81645.9
81646
81646.2
81646.4
81646.6
81646.7
81646.9
81647
81647.2
81647.3
81647.4
81647.5
81647.6
81647.6
81647.6
81647.7
81606.7
81606.6
81606.5
81606.3
81606.1
81605.7
81605.4
81605
81604.6
81604
81603.6
81603
81602.5
81601.8
81601.3
81600.6
81600.1
81599.5
81598.9
81598.4
81597.9
81597.4
81596.9
81596.5
81596.2
81595.9
81595.7
81595.5
81595.3
81595.3
81595.3
81595.3
81595.5
81595.6
81595.9
81596.2
81596.5
81596.9
81597.3
81597.8
81598.3
81598.9
81599.4
81600
81600.6
81601.2
81601.8
81602.4
81602.9
81603.5
81604
81604.5
81604.9
81605.4
81605.7
81606
81606.2
81606.4
81606.5
81606.6
81653.4
81653.4
81653.3
81653.2
81653
81652.8
81652.6
81652.4
81652.1
81651.8
81651.5
81651.1
81650.8
81650.4
81650
81649.7
81649.3
81649
81648.6
81648.3
81647.9
81647.7
81647.4
81647.1
81646.9
81646.7
81646.6
81646.4
81646.4
81646.3
81646.3
81646.3
81646.4
81646.5
81646.6
81646.8
81647
81647.2
81647.5
81647.8
81648.1
81648.4
81648.7
81649.1
81649.4
81649.8
81650.1
81650.5
81650.8
81651.1
81651.5
81651.7
81652
81652.3
81652.5
81652.7
81652.8
81652.9
81653
81653.1
81607.3
81607.1
81607
81606.6
81606.2
81605.6
81605
81604.2
81603.5
81602.5
81601.7
81600.6
81599.6
81598.5
81597.5
81596.4
81595.4
81594.3
81593.3
81592.3
81591.4
81590.5
81589.8
81589
81588.4
81587.8
81587.4
81587.1
81586.9
81586.8
81586.8
81586.9
81587.1
81587.4
81587.8
81588.4
81589
81589.7
81590.5
81591.4
81592.2
81593.3
81594.2
81595.3
81596.3
81597.4
81598.4
81599.6
81600.5
81601.6
81602.4
81603.4
81604.1
81604.9
81605.5
81606.1
81606.5
81606.9
81607
81607.2
81661.2
81661.1
81661
81660.7
81660.4
81660
81659.6
81659.1
81658.5
81658
81657.3
81656.7
81655.9
81655.3
81654.5
81653.8
81653.1
81652.4
81651.7
81651.1
81650.4
81649.9
81649.3
81648.9
81648.4
81648.1
81647.7
81647.5
81647.4
81647.3
81647.3
81647.3
81647.5
81647.7
81647.9
81648.3
81648.7
81649.1
81649.7
81650.2
81650.8
81651.4
81652.1
81652.8
81653.5
81654.2
81654.9
81655.6
81656.3
81656.9
81657.5
81658.1
81658.6
81659.1
81659.5
81659.9
81660.2
81660.5
81660.6
81660.7
81610.9
81610.6
81610.3
81609.6
81608.9
81607.8
81606.8
81605.3
81604
81602.3
81600.7
81598.8
81597.1
81595.1
81593.3
81591.2
81589.4
81587.4
81585.7
81583.8
81582.3
81580.6
81579.3
81577.9
81576.9
81575.9
81575.1
81574.5
81574.1
81573.9
81573.9
81574.1
81574.5
81575.1
81575.8
81576.8
81577.9
81579.2
81580.6
81582.2
81583.8
81585.6
81587.3
81589.3
81591.1
81593.2
81595
81597
81598.7
81600.6
81602.2
81603.9
81605.2
81606.6
81607.7
81608.8
81609.5
81610.2
81610.5
81610.8
81672.9
81672.6
81672.4
81671.9
81671.3
81670.5
81669.7
81668.7
81667.6
81666.5
81665.2
81664
81662.6
81661.3
81659.8
81658.5
81657
81655.8
81654.4
81653.2
81651.9
81650.8
81649.7
81648.9
81648
81647.4
81646.8
81646.4
81646
81645.9
81645.9
81646
81646.3
81646.6
81647.2
81647.8
81648.7
81649.5
81650.5
81651.6
81652.8
81654
81655.3
81656.6
81658
81659.3
81660.8
81662.1
81663.5
81664.7
81665.9
81667
81668.1
81669.1
81669.9
81670.6
81671.2
81671.7
81671.9
81672.2
81620.6
81620
81619.5
81618.1
81616.9
81614.9
81613
81610.4
81608
81604.8
81602
81598.6
81595.5
81591.8
81588.5
81584.8
81581.6
81578
81574.9
81571.5
81568.7
81565.8
81563.4
81560.9
81559
81557.2
81555.9
81554.8
81554.1
81553.7
81553.7
81554.1
81554.8
81555.9
81557.2
81559
81560.9
81563.3
81565.7
81568.6
81571.4
81574.7
81577.8
81581.4
81584.7
81588.4
81591.6
81595.3
81598.4
81601.8
81604.7
81607.8
81610.2
81612.8
81614.7
81616.7
81617.9
81619.3
81619.8
81620.4
81691.4
81690.9
81690.5
81689.5
81688.4
81686.9
81685.2
81683.4
81681.2
81679.1
81676.6
81674.2
81671.5
81668.9
81666.1
81663.5
81660.7
81658.2
81655.6
81653.3
81650.8
81648.8
81646.7
81645.1
81643.4
81642.2
81641
81640.3
81639.7
81639.4
81639.4
81639.6
81640.1
81640.9
81642
81643.2
81644.8
81646.4
81648.4
81650.4
81652.8
81655.1
81657.7
81660.1
81662.9
81665.4
81668.2
81670.7
81673.4
81675.8
81678.2
81680.4
81682.5
81684.4
81686
81687.5
81688.6
81689.6
81690
81690.5
81641.8
81640.8
81639.7
81637.3
81635
81631.3
81627.9
81623
81618.7
81612.9
81607.9
81601.5
81595.9
81589.2
81583.3
81576.6
81570.7
81564.2
81558.7
81552.6
81547.6
81542.3
81538
81533.6
81530.3
81527
81524.7
81522.7
81521.5
81520.8
81520.8
81521.5
81522.7
81524.6
81527
81530.2
81533.6
81537.9
81542.2
81547.4
81552.5
81558.5
81564
81570.5
81576.4
81583.1
81589
81595.6
81601.2
81607.6
81612.7
81618.4
81622.8
81627.6
81631
81634.7
81637
81639.4
81640.5
81641.5
81722.5
81721.6
81720.6
81718.7
81716.5
81713.6
81710.3
81706.7
81702.6
81698.3
81693.5
81688.9
81683.7
81678.8
81673.4
81668.4
81663.1
81658.3
81653.3
81648.9
81644.3
81640.4
81636.5
81633.3
81630.3
81627.9
81625.8
81624.3
81623.2
81622.7
81622.6
81623.1
81624.1
81625.6
81627.6
81630
81632.9
81636.1
81639.9
81643.8
81648.2
81652.6
81657.6
81662.4
81667.6
81672.5
81677.8
81682.7
81687.9
81692.5
81697.2
81701.5
81705.5
81709.2
81712.4
81715.3
81717.4
81719.4
81720.3
81721.3
81685
81683.1
81681.1
81676.6
81672.4
81665.4
81659.1
81650.1
81642.2
81631.5
81622.2
81610.5
81600.3
81588
81577.5
81565.2
81554.7
81542.9
81533
81522.1
81513.2
81503.7
81496.1
81488.3
81482.3
81476.6
81472.5
81468.9
81466.8
81465.6
81465.6
81466.8
81468.9
81472.4
81476.5
81482.2
81488.2
81495.9
81503.5
81512.9
81521.9
81532.7
81542.6
81554.4
81564.9
81577.2
81587.7
81600
81610.1
81621.9
81631.1
81641.7
81649.7
81658.7
81665
81671.9
81676.2
81680.7
81682.6
81684.6
81776.7
81774.9
81772.9
81769.1
81764.7
81759
81752.6
81745.5
81737.5
81729.2
81720.1
81711
81701.1
81691.6
81681.4
81671.9
81661.9
81652.7
81643.3
81634.8
81626.4
81619
81611.9
81605.8
81600.2
81595.7
81591.8
81589
81587.1
81586.1
81586
81586.9
81588.8
81591.6
81595.3
81599.8
81605.2
81611.3
81618.3
81625.7
81634
81642.5
81651.7
81660.9
81670.7
81680.3
81690.3
81699.8
81709.6
81718.7
81727.7
81736
81743.9
81751.1
81757.4
81763.1
81767.4
81771.3
81773.2
81775
81770.1
81766.4
81762.8
81754
81746.2
81732.7
81721.2
81703.9
81689.2
81669.1
81652.1
81630.1
81611.7
81588.9
81569.9
81547.4
81528.8
81507.4
81489.8
81470.4
81454.7
81437.9
81424.6
81411
81400.5
81390.5
81383.4
81377.2
81373.6
81371.5
81371.5
81373.5
81377.2
81383.2
81390.4
81400.3
81410.8
81424.3
81437.7
81454.4
81470.2
81489.5
81507.1
81528.3
81547
81569.5
81588.5
81611.2
81629.6
81651.5
81668.6
81688.6
81703.3
81720.6
81732.2
81745.6
81753.4
81762.2
81765.8
81769.5
81874.2
81870.6
81866.6
81858.8
81850.1
81838.7
81826.1
81811.8
81796.4
81779.9
81762.5
81744.6
81726
81707.4
81688.5
81670
81651.6
81634
81616.9
81600.8
81585.7
81571.6
81558.9
81547.5
81537.6
81529.1
81522.3
81517.1
81513.7
81511.9
81511.8
81513.5
81516.9
81522
81528.6
81537
81546.8
81558.2
81570.7
81584.7
81599.7
81615.8
81632.7
81650.3
81668.4
81687
81705.7
81724.3
81742.7
81760.6
81777.9
81794.4
81809.6
81824
81836.4
81847.9
81856.5
81864.3
81868.3
81871.9
81936.6
81929.1
81922.2
81904.1
81889.2
81861.9
81840.1
81805.6
81778.4
81739
81707.8
81665.8
81632.4
81590
81556
81515
81482
81443.8
81413.1
81379
81351.7
81322.7
81299.8
81276.6
81258.8
81241.8
81229.6
81219.3
81213.1
81209.6
81209.6
81213.1
81219.2
81229.5
81241.6
81258.5
81276.3
81299.5
81322.4
81351.3
81378.6
81412.6
81443.3
81481.4
81514.5
81555.4
81589.4
81631.7
81665.2
81707
81738.3
81777.5
81804.9
81839.3
81861.1
81888.3
81903.3
81921.4
81928.3
81935.8
82055.3
82047.7
82039.3
82022.7
82005
81980.8
81956
81926.2
81896.3
81862.7
81829.5
81793.6
81758.9
81722.3
81687.8
81652
81619.1
81585.6
81555.5
81525.4
81499
81473.1
81451.2
81430.3
81413.4
81398.1
81386.6
81377.3
81371.5
81368.3
81368.2
81371.3
81377
81386.2
81397.5
81412.8
81429.5
81450.3
81472
81497.8
81524
81554.1
81583.9
81617.4
81650
81685.8
81720.1
81756.7
81791.1
81827.1
81859.9
81893.6
81923.2
81953.1
81977.6
82002
82019.3
82036.1
82044.3
82052.1
82264.6
82247.6
82234
82192.6
82163.7
82103.5
82061.6
81988.6
81937
81857.2
81799.5
81717.9
81657.6
81578.4
81518.6
81444.5
81387.5
81320.6
81268.6
81210.3
81164.9
81116.3
81078.6
81040.3
81011.3
80983.7
80964
80947.3
80937.4
80931.7
80931.7
80937.3
80947.2
80963.8
80983.5
81011
81040
81078.2
81115.9
81164.4
81209.9
81268
81320.1
81386.8
81443.9
81517.7
81577.7
81656.6
81717.1
81798.3
81856.3
81935.8
81987.7
82060.3
82102.4
82162.4
82191.5
82232.7
82246.4
82263.3
82405.9
82387.4
82368.9
82329
82291.7
82235.6
82185
82118.9
82060.4
81988.8
81926.2
81852.7
81789.4
81717
81655.9
81587.6
81530.9
81468.8
81418.2
81363.8
81320.3
81274.5
81239
81202.7
81175.7
81149.5
81131.3
81115.4
81106.2
81100.9
81100.8
81106
81115
81130.8
81148.8