# vtk DataFile Version 3.0
Structured Grid Example
ASCII
DATASET STRUCTURED_GRID
DIMENSIONS 30 60 1
POINTS 1800 FLOAT
0.0416666 0.0166667 0
0.0416664 0.05 0
0.0416662 0.0833333 0
0.041666 0.116667 0
0.0416658 0.15 0
0.0416656 0.183333 0
0.0416654 0.216667 0
0.0416653 0.25 0
0.0416651 0.283333 0
0.041665 0.316667 0
0.0416649 0.35 0
0.0416648 0.383333 0
0.0416648 0.416667 0
0.0416647 0.45 0
0.0416647 0.483333 0
0.0416647 0.516667 0
0.0416647 0.55 0
0.0416648 0.583333 0
0.0416648 0.616667 0
0.0416649 0.65 0
0.041665 0.683333 0
0.0416651 0.716667 0
0.0416653 0.75 0
0.0416654 0.783333 0
0.0416656 0.816667 0
0.0416658 0.85 0
0.041666 0.883333 0
0.0416662 0.916667 0
0.0416664 0.95 0
0.0416666 0.983333 0
0.125 0.0166667 0
0.124999 0.05 0
0.124998 0.0833334 0
0.124998 0.116667 0
0.124997 0.15 0
0.124997 0.183333 0
0.124996 0.216667 0
0.124996 0.25 0
0.124995 0.283333 0
0.124995 0.316667 0
0.124995 0.35 0
0.124994 0.383333 0
0.124994 0.416667 0
0.124994 0.45 0
0.124994 0.483333 0
0.124994 0.516667 0
0.124994 0.55 0
0.124994 0.583333 0
0.124994 0.616667 0
0.124995 0.65 0
0.124995 0.683333 0
0.124995 0.716667 0
0.124996 0.75 0
0.124996 0.783333 0
0.124997 0.816667 0
0.124997 0.85 0
0.124998 0.883333 0
0.124998 0.916667 0
0.124999 0.95 0
0.125 0.983333 0
0.208333 0.0166667 0
0.208332 0.0500001 0
0.208331 0.0833334 0
0.20833 0.116667 0
0.208329 0.15 0
0.208328 0.183334 0
0.208327 0.216667 0
0.208326 0.25 0
0.208325 0.283334 0
0.208325 0.316667 0
0.208324 0.35 0
0.208324 0.383333 0
0.208323 0.416667 0
0.208323 0.45 0
0.208323 0.483333 0
0.208323 0.516667 0
0.208323 0.55 0
0.208323 0.583333 0
0.208324 0.616667 0
0.208324 0.65 0
0.208325 0.683333 0
0.208325 0.716666 0
0.208326 0.75 0
0.208327 0.783333 0
0.208328 0.816666 0
0.208329 0.85 0
0.20833 0.883333 0
0.208331 0.916667 0
0.208332 0.95 0
0.208333 0.983333 0
0.291666 0.0166667 0
0.291664 0.0500001 0
0.291663 0.0833335 0
0.291661 0.116667 0
0.29166 0.15 0
0.291658 0.183334 0
0.291657 0.216667 0
0.291656 0.25 0
0.291655 0.283334 0
0.291654 0.316667 0
0.291653 0.35 0
0.291652 0.383334 0
0.291652 0.416667 0
0.291651 0.45 0
0.291651 0.483333 0
0.291651 0.516667 0
0.291651 0.55 0
0.291652 0.583333 0
0.291652 0.616666 0
0.291653 0.65 0
0.291654 0.683333 0
0.291655 0.716666 0
0.291656 0.75 0
0.291657 0.783333 0
0.291658 0.816666 0
0.29166 0.85 0
0.291661 0.883333 0
0.291663 0.916666 0
0.291664 0.95 0
0.291666 0.983333 0
0.374999 0.0166667 0
0.374997 0.0500002 0
0.374994 0.0833337 0
0.374992 0.116667 0
0.37499 0.150001 0
0.374988 0.183334 0
0.374986 0.216667 0
0.374985 0.250001 0
0.374983 0.283334 0
0.374982 0.316667 0
0.37498 0.350001 0
0.37498 0.383334 0
0.374979 0.416667 0
0.374978 0.45 0
0.374978 0.483333 0
0.374978 0.516667 0
0.374978 0.55 0
0.374979 0.583333 0
0.37498 0.616666 0
0.37498 0.649999 0
0.374982 0.683333 0
0.374983 0.716666 0
0.374985 0.749999 0
0.374986 0.783333 0
0.374988 0.816666 0
0.37499 0.849999 0
0.374992 0.883333 0
0.374994 0.916666 0
0.374997 0.95 0
0.374999 0.983333 0
0.458332 0.0166668 0
0.458329 0.0500003 0
0.458326 0.0833339 0
0.458323 0.116667 0
0.45832 0.150001 0
0.458317 0.183334 0
0.458315 0.216668 0
0.458312 0.250001 0
0.45831 0.283334 0
0.458308 0.316668 0
0.458307 0.350001 0
0.458306 0.383334 0
0.458305 0.416667 0
0.458304 0.45 0
0.458304 0.483333 0
0.458304 0.516667 0
0.458304 0.55 0
0.458305 0.583333 0
0.458306 0.616666 0
0.458307 0.649999 0
0.458308 0.683332 0
0.45831 0.716666 0
0.458312 0.749999 0
0.458315 0.783332 0
0.458317 0.816666 0
0.45832 0.849999 0
0.458323 0.883333 0
0.458326 0.916666 0
0.458329 0.95 0
0.458332 0.983333 0
0.541665 0.0166669 0
0.54166 0.0500006 0
0.541656 0.0833342 0
0.541653 0.116668 0
0.541649 0.150001 0
0.541645 0.183335 0
0.541642 0.216668 0
0.541639 0.250002 0
0.541636 0.283335 0
0.541634 0.316668 0
0.541632 0.350001 0
0.54163 0.383335 0
0.541629 0.416668 0
0.541628 0.450001 0
0.541627 0.483334 0
0.541627 0.516666 0
0.541628 0.549999 0
0.541629 0.583332 0
0.54163 0.616665 0
0.541632 0.649999 0
0.541634 0.683332 0
0.541636 0.716665 0
0.541639 0.749998 0
0.541642 0.783332 0
0.541645 0.816665 0
0.541649 0.849999 0
0.541653 0.883332 0
0.541656 0.916666 0
0.54166 0.949999 0
0.541665 0.983333 0
0.624997 0.016667 0
0.624992 0.0500009 0
0.624987 0.0833349 0
0.624981 0.116669 0
0.624976 0.150002 0
0.624972 0.183336 0
0.624967 0.21667 0
0.624963 0.250003 0
0.62496 0.283336 0
0.624956 0.316669 0
0.624954 0.350002 0
0.624952 0.383335 0
0.62495 0.416668 0
0.624949 0.450001 0
0.624948 0.483334 0
0.624948 0.516666 0
0.624949 0.549999 0
0.62495 0.583332 0
0.624952 0.616665 0
0.624954 0.649998 0
0.624956 0.683331 0
0.62496 0.716664 0
0.624963 0.749997 0
0.624967 0.78333 0
0.624972 0.816664 0
0.624976 0.849998 0
0.624981 0.883331 0
0.624987 0.916665 0
0.624992 0.949999 0
0.624997 0.983333 0
0.70833 0.0166672 0
0.708323 0.0500016 0
0.708316 0.0833359 0
0.708309 0.11667 0
0.708302 0.150004 0
0.708296 0.183338 0
0.708291 0.216672 0
0.708285 0.250005 0
0.708281 0.283338 0
0.708276 0.316671 0
0.708273 0.350004 0
0.70827 0.383337 0
0.708268 0.416669 0
0.708266 0.450002 0
0.708265 0.483334 0
0.708265 0.516666 0
0.708266 0.549998 0
0.708268 0.583331 0
0.70827 0.616663 0
0.708273 0.649996 0
0.708276 0.683329 0
0.708281 0.716662 0
0.708285 0.749995 0
0.708291 0.783328 0
0.708296 0.816662 0
0.708302 0.849996 0
0.708309 0.88333 0
0.708316 0.916664 0
0.708323 0.949998 0
0.70833 0.983333 0
0.791662 0.0166676 0
0.791653 0.0500026 0
0.791644 0.0833376 0
0.791635 0.116672 0
0.791626 0.150007 0
0.791618 0.183341 0
0.791611 0.216675 0
0.791604 0.250009 0
0.791598 0.283342 0
0.791592 0.316674 0
0.791588 0.350007 0
0.791584 0.383339 0
0.791581 0.416671 0
0.791579 0.450003 0
0.791578 0.483334 0
0.791578 0.516666 0
0.791579 0.549997 0
0.791581 0.583329 0
0.791584 0.616661 0
0.791588 0.649993 0
0.791592 0.683326 0
0.791598 0.716658 0
0.791604 0.749991 0
0.791611 0.783325 0
0.791618 0.816659 0
0.791626 0.849993 0
0.791635 0.883328 0
0.791644 0.916662 0
0.791653 0.949997 0
0.791662 0.983332 0
0.874994 0.0166682 0
0.874982 0.0500044 0
0.87497 0.0833405 0
0.874959 0.116676 0
0.874948 0.150012 0
0.874937 0.183346 0
0.874927 0.216681 0
0.874918 0.250014 0
0.87491 0.283347 0
0.874903 0.31668 0
0.874897 0.350012 0
0.874892 0.383343 0
0.874889 0.416674 0
0.874886 0.450004 0
0.874885 0.483335 0
0.874885 0.516665 0
0.874886 0.549996 0
0.874889 0.583326 0
0.874892 0.616657 0
0.874897 0.649988 0
0.874903 0.68332 0
0.87491 0.716653 0
0.874918 0.749986 0
0.874927 0.783319 0
0.874937 0.816654 0
0.874948 0.849988 0
0.874959 0.883324 0
0.87497 0.916659 0
0.874982 0.949996 0
0.874994 0.983332 0
0.958325 0.0166692 0
0.95831 0.0500074 0
0.958294 0.0833454 0
0.958279 0.116683 0
0.958265 0.150019 0
0.958251 0.183355 0
0.958239 0.21669 0
0.958227 0.250024 0
0.958217 0.283357 0
0.958207 0.316689 0
0.9582 0.350019 0
0.958193 0.383349 0
0.958189 0.416679 0
0.958185 0.450007 0
0.958184 0.483336 0
0.958184 0.516664 0
0.958185 0.549993 0
0.958189 0.583321 0
0.958193 0.616651 0
0.9582 0.649981 0
0.958207 0.683311 0
0.958217 0.716643 0
0.958227 0.749976 0
0.958239 0.78331 0
0.958251 0.816645 0
0.958265 0.849981 0
0.958279 0.883317 0
0.958294 0.916655 0
0.95831 0.949993 0
0.958325 0.983331 0
1.04166 0.0166709 0
1.04164 0.0500125 0
1.04162 0.0833535 0
1.0416 0.116694 0
1.04158 0.150033 0
1.04156 0.18337 0
1.04154 0.216706 0
1.04153 0.25004 0
1.04152 0.283373 0
1.0415 0.316703 0
1.04149 0.350033 0
1.04148 0.38336 0
1.04148 0.416687 0
1.04147 0.450012 0
1.04147 0.483338 0
1.04147 0.516662 0
1.04147 0.549988 0
1.04148 0.583313 0
1.04148 0.61664 0
1.04149 0.649967 0
1.0415 0.683297 0
1.04152 0.716627 0
1.04153 0.74996 0
1.04154 0.783294 0
1.04156 0.81663 0
1.04158 0.849967 0
1.0416 0.883306 0
1.04162 0.916646 0
1.04164 0.949988 0
1.04166 0.983329 0
1.12499 0.0166738 0
1.12496 0.050021 0
1.12493 0.0833672 0
1.12491 0.116712 0
1.12488 0.150055 0
1.12486 0.183395 0
1.12484 0.216733 0
1.12482 0.250068 0
1.1248 0.283399 0
1.12479 0.316728 0
1.12477 0.350054 0
1.12476 0.383378 0
1.12476 0.4167 0
1.12475 0.450021 0
1.12475 0.48334 0
1.12475 0.51666 0
1.12475 0.549979 0
1.12476 0.5833 0
1.12476 0.616622 0
1.12477 0.649946 0
1.12479 0.683272 0
1.1248 0.716601 0
1.12482 0.749932 0
1.12484 0.783267 0
1.12486 0.816605 0
1.12488 0.849945 0
1.12491 0.883288 0
1.12493 0.916633 0
1.12496 0.949979 0
1.12499 0.983326 0
1.20832 0.0166786 0
1.20828 0.0500352 0
1.20825 0.0833903 0
1.20821 0.116743 0
1.20818 0.150092 0
1.20815 0.183437 0
1.20813 0.216778 0
1.2081 0.250113 0
1.20808 0.283444 0
1.20806 0.31677 0
1.20804 0.350091 0
1.20803 0.383409 0
1.20802 0.416723 0
1.20801 0.450035 0
1.20801 0.483345 0
1.20801 0.516655 0
1.20801 0.549965 0
1.20802 0.583277 0
1.20803 0.616591 0
1.20804 0.649909 0
1.20806 0.68323 0
1.20808 0.716556 0
1.2081 0.749887 0
1.20813 0.783222 0
1.20815 0.816563 0
1.20818 0.849908 0
1.20821 0.883257 0
1.20825 0.91661 0
1.20828 0.949965 0
1.20832 0.983321 0
1.29164 0.0166867 0
1.2916 0.0500593 0
1.29155 0.0834291 0
1.29151 0.116795 0
1.29147 0.150154 0
1.29143 0.183507 0
1.2914 0.216853 0
1.29136 0.25019 0
1.29133 0.283518 0
1.29131 0.316839 0
1.29129 0.350152 0
1.29127 0.383459 0
1.29126 0.416761 0
1.29125 0.450058 0
1.29124 0.483353 0
1.29124 0.516647 0
1.29125 0.549942 0
1.29126 0.583239 0
1.29127 0.616541 0
1.29129 0.649848 0
1.29131 0.683161 0
1.29133 0.716482 0
1.29136 0.74981 0
1.2914 0.783147 0
1.29143 0.816493 0
1.29147 0.849846 0
1.29151 0.883205 0
1.29155 0.916571 0
1.2916 0.949941 0
1.29164 0.983313 0
1.37497 0.0167005 0
1.37491 0.0501 0
1.37485 0.0834948 0
1.3748 0.116882 0
1.37474 0.15026 0
1.37469 0.183626 0
1.37465 0.216979 0
1.3746 0.250318 0
1.37457 0.283643 0
1.37453 0.316955 0
1.37451 0.350254 0
1.37449 0.383543 0
1.37447 0.416823 0
1.37446 0.450097 0
1.37445 0.483366 0
1.37445 0.516634 0
1.37446 0.549903 0
1.37447 0.583177 0
1.37449 0.616457 0
1.37451 0.649746 0
1.37453 0.683045 0
1.37457 0.716357 0
1.3746 0.749682 0
1.37465 0.783021 0
1.37469 0.816374 0
1.37474 0.84974 0
1.3748 0.883118 0
1.37485 0.916505 0
1.37491 0.9499 0
1.37497 0.983299 0
1.45829 0.0167241 0
[...]
POINT_DATA 1800
SCALARS pressure float 1
LOOKUP_TABLE default
81775.7
81775.7
81775.7
81775.6
81775.6
81775.6
81775.6
81775.5
81775.5
81775.5
81775.5
81775.5
81775.5
81775.5
81775.4
81775.4
81775.4
81775.5
81775.5
81775.5
81775.5
81775.5
81775.5
81775.6
81775.6
81775.6
81775.6
81775.6
81775.6
81775.7
81349.4
81349.4
81349.4
81349.3
81349.3
81349.2
81349.2
81349.1
81349.1
81349.1
81349
81349
81349
81349
81349
81349
81349
81349
81349
81349
81349
81349.1
81349.1
81349.2
81349.2
81349.3
81349.3
81349.3
81349.4
81349.4
81669.7
81669.7
81669.7
81669.7
81669.7
81669.7
81669.7
81669.7
81669.7
81669.6
81669.6
81669.6
81669.6
81669.6
81669.6
81669.6
81669.6
81669.6
81669.6
81669.6
81669.6
81669.6
81669.7
81669.7
81669.7
81669.7
81669.7
81669.7
81669.7
81669.7
81441.6
81441.6
81441.6
81441.6
81441.6
81441.5
81441.5
81441.5
81441.5
81441.5
81441.4
81441.4
81441.4
81441.4
81441.4
81441.4
81441.4
81441.4
81441.4
81441.4
81441.4
81441.5
81441.5
81441.5
81441.5
81441.5
81441.5
81441.6
81441.6
81441.6
81613.1
81613.1
81613.1
81613.1
81613.1
81613.1
81613.1
81613.1
81613.1
81613.1
81613.1
81613.1
81613.1
81613.1
81613.1
81613.1
81613.1
81613.1
81613.1
81613.1
81613.1
81613.1
81613.1
81613.1
81613.1
81613.1
81613.1
81613.1
81613.1
81613.1
81473.6
81473.6
81473.6
81473.6
81473.6
81473.5
81473.5
81473.5
81473.4
81473.4
81473.4
81473.4
81473.3
81473.3
81473.3
81473.3
81473.3
81473.3
81473.3
81473.4
81473.4
81473.4
81473.4
81473.5
81473.5
81473.5
81473.5
81473.6
81473.6
81473.6
81597.5
81597.5
81597.5
81597.5
81597.5
81597.5
81597.5
81597.5
81597.4
81597.4
81597.4
81597.4
81597.4
81597.4
81597.4
81597.4
81597.4
81597.4
81597.4
81597.4
81597.4
81597.4
81597.4
81597.4
81597.4
81597.4
81597.4
81597.4
81597.4
81597.4
81478.7
81478.7
81478.6
81478.6
81478.5
81478.4
81478.4
81478.3
81478.2
81478.1
81478
81478
81477.9
81477.9
81477.8
81477.8
81477.8
81477.9
81477.9
81478
81478
81478.1
81478.2
81478.3
81478.3
81478.4
81478.5
81478.5
81478.6
81478.6
81600.3
81600.3
81600.2
81600.2
81600.2
81600.2
81600.2
81600.2
81600.1
81600.1
81600.1
81600.1
81600
81600
81600
81600
81600
81600
81600
81600
81600
81600
81600.1
81600.1
81600.1
81600.1
81600.1
81600.1
81600.1
81600.2
81471.4
81471.3
81471.2
81471
81470.9
81470.6
81470.4
81470.1
81469.9
81469.6
81469.4
81469.2
81469.1
81468.9
81468.9
81468.9
81468.9
81469
81469.1
81469.3
81469.5
81469.8
81470
81470.3
81470.5
81470.7
81470.9
81471
81471.1
81471.2
81613.1
81613.1
81613.1
81613
81612.9
81612.8
81612.7
81612.6
81612.4
81612.4
81612.2
81612.2
81612
81612
81612
81612
81612
81612
81612.1
81612.1
81612.2
81612.3
81612.4
81612.5
81612.6
81612.7
81612.8
81612.9
81612.9
81612.9
81457.9
81457.6
81457.4
81456.8
81456.3
81455.5
81454.9
81454
81453.4
81452.5
81451.9
81451.2
81450.9
81450.5
81450.3
81450.3
81450.4
81450.7
81451.1
81451.7
81452.3
81453.1
81453.8
81454.6
81455.3
81456
81456.5
81457.1
81457.3
81457.5
81634.4
81634.3
81634.1
81633.8
81633.4
81633
81632.5
81632.1
81631.5
81631.2
81630.6
81630.4
81630
81629.8
81629.7
81629.7
81629.7
81629.9
81630.2
81630.5
81630.9
81631.3
81631.8
81632.2
81632.7
81633
81633.4
81633.7
81633.9
81634
81442.9
81442.1
81441.4
81439.6
81438.1
81435.6
81433.7
81431
81429
81426.4
81424.7
81422.6
81421.4
81420.3
81419.9
81419.8
81420.3
81421.2
81422.4
81424.3
81426.1
81428.6
81430.6
81433.2
81435.2
81437.5
81439
81440.7
81441.5
81442.2
81667.5
81666.9
81666.1
81665
81663.4
81662
81660
81658.5
81656.4
81654.9
81653.1
81652
81650.7
81650.1
81649.6
81649.6
81649.9
81650.6
81651.7
81652.9
81654.5
81656
81657.9
81659.5
81661.3
81662.8
81664.3
81665.4
81666.1
81666.7
81437.1
81434.6
81432.3
81426.7
81422.2
81414.4
81408.6
81400
81393.9
81386
81380.7
81374.6
81371
81367.6
81366.4
81366.2
81367.5
81370.6
81374.3
81380
81385.5
81393.1
81399.3
81407.6
81413.5
81421.1
81425.7
81431.1
81433.5
81435.9
81725.7
81723.5
81720.6
81716.2
81710.7
81705
81698.1
81692.1
81685.1
81679.5
81673.5
81669.2
81665.1
81662.7
81661.1
81661.2
81662.4
81664.9
81668.5
81673.1
81678.6
81684.4
81691
81697.2
81703.7
81709.5
81714.8
81719.3
81722
81724.3
81475.2
81467.2
81459.9
81441.2
81427.1
81402
81384
81357.1
81338.5
81314.3
81298.4
81280.2
81269.6
81259.8
81256.2
81255.8
81259.7
81268.9
81279.7
81297.2
81313.4
81337
81355.9
81382.1
81400.4
81425
81439.4
81457.7
81465.2
81473
81853.9
81845.1
81834.6
81816.8
81797.8
81775.6
81753.1
81730.2
81708
81687.2
81668.6
81652.8
81640.3
81631.9
81627.2
81627.4
81631.2
81640
81651.6
81667.8
81685.5
81706.8
81728
81751.5
81773.1
81795.8
81814
81832.3
81842.3
81851.4
81679.7
81647.4
81623.9
81554.4
81510
81423.7
81368.8
81283.1
81228.4
81155.8
81110.6
81058.8
81029.5
81002.5
80992.5
80992
81002.4
81028.1
81057.9
81108.5
81154.2
81225.5
81280.9
81365.2
81421
81506
81551.2
81619.7
81643.7
81675.5
82213.5
82168.5
82129.3
82049.9
81985.8
81896.7
81826.8
81741.9
81677.3
81605
81553.1
81500.6
81466.9
81439.5
81427.5
81427.7
81438.3
81466.3
81498.4
81551.7
81601.8
81675.2
81737.8
81824.2
81891.7
81982.3
82044.1
82125
82162.8
82209
82547.2
82336.2
82256.9
81941.3
81800.8
81486.9
81325.8
81060
80912
80712.4
80598.3
80467.5
80396.9
80332.4
80308.7
80308
80332.1
80395
80466.2
80594.9
80709.8
80906.8
81056.3
81318.9
81482.4
81793
81936.4
82248.9
82330.5
82538.8
83508.1
83117.1
82953
82544.2
82338.8
81982.1
81794.7
81506
81351.9
81133.6
81019.1
80872.9
80802.3
80729.3
80704.9
80705.2
80727.5
80801.4
80869.6
81017.2
81128.5
81349.3
81498.9
81791.5
81972.1
82334
82530.3
82945.7
83101.1
83500
86563
84275.3
83991.1
82464
82053
81035.8
80639.4
79976
79665.2
79248.7
79036.3
78793.5
78671.8
78559.9
78520.5
78520.1
78559.6
78670.4
78792.3
79032.9
79245.9
79658.3
79970.8
80627.4
81028.8
82037.3
82459.6
83977.2
84277.2
86550.5
87650.8
84678.1
83811.6
82113
81723.7
80665.6
80438.4
79756.9
79595.7
79157
79040.1
78775.9
78703.5
78579
78554.1
78554.4
78578.1
78703.3
78774.1
79039.8
79153.6
79595.4
79750.1
80437.8
80650.4
81720.2
82076.9
83799.1
84597.3
87625.3
75312.8
75996.8
74994
75266.9
74806
74837.4
74615.2
74548.7
74439.9
74358.1
74306
74243.8
74220.8
74189.4
74182.8
74184.8
74190.7
74226.3
74248.1
74315.4
74365.2
74453.9
74559.1
74635
74852.7
74832.6
75289.9
75025.4
76030
75340.2
73558.3
74567.6
73786.1
74245.8
73789
73965
73718.1
73761.3
73631
73620.1
73552
73528.2
73495.3
73479.5
73470.1
73471.5
73482.5
73501
73536.1
73562.6
73634.3
73647.1
73783.8
73740.6
73999.4
73819
74299
73825.6
74654
73608.9
62836.7
64736.5
64062.2
65334.1
65042.6
65913.4
65850.8
66433.6
66474.2
66846.1
66912.7
67131.2
67183.7
67285
67304.9
67306
67288.2
67188.8
67138.8
66921.8
66858.7
66487.1
66451.9
65866.2
65938
65057.3
65365.5
64075.4
64780.6
62847.9
57785.9
60459.8
60175.1
62059.1
61934.1
63197.2
63166.2
63992.8
64019.8
64547
64596.4
64908.4
64950.8
65096
65113.5
65113.8
65100.9
64955.6
64919.2
64604.8
64564.8
64031
64019.2
63179.4
63234.9
61950.9
62112.2
60195.7
60525.9
57796.8
48813
51816.3
51687.9
53837.3
53877.7
55445.4
55595
56711.7
56888.4
57643.4
57796.2
58260.8
58362.9
58583.7
58622.1
58621
58591.9
58368.5
58276.1
57807.9
57665.4
56905.6
56739.3
55616.6
55476.3
53899.9
53866.2
51710.1
51843.4
48831.5
41086.3
44585.1
44781.9
47401.4
47529.8
49385.5
49506.9
50798.4
50965.7
51848.6
52045.9
52604.5
52763.9
53036.9
53097.8
53098.8
53037.2
52765
52604.6
52043.5
51845.7
50955.5
50791
49487.1
49378.6
47508.1
47404
44763.8
44596.2
41056.3
33083.2
36429.4
36967.7
39542.9
39914.1
41824.7
41954.6
43327.8
43265.9
44206.4
44073.5
44659.1
44544
44818.3
44770.7
44754.4
44790.9
44484.2
44591.2
43974.9
44104.9
43139
43203.3
41817.2
41694
39781.8
39419.3
36854.1
36324.7
32973.4
26591.8
29663.8
30926.8
34461.9
36597.5
39859.1
42177.5
44684.8
46671.8
48399.8
49821.1
50880
51706.4
52203.8
52479.1
52479
52228
51735.9
50931
49891.1
48486.6
46792.1
44817.4
42345.4
40032
36776.9
34640.8
31020.8
29753.2
26517.4
25751.5
27208.5
24221.6
25806
24474.1
26566.1
26852.4
29119.3
30172.2
32085.5
33291.4
34608.8
35520
36193.3
36525.1
36566.8
36223.1
35623.1
34707.5
33433.5
32233.2
30314.4
29271.4
26930.9
26636.9
24391.7
25681.1
23915.7
26879.6
25272.2
57131
58214.3
51900
52450
46250.5
46483.5
40969.3
41293.3
36888.8
37329.5
34245.3
34683.6
32904.9
33161.7
32602.4
32545.2
33168.2
32785
34635.6
34040.9
37211.2
36582.1
41091.8
40565.4
46205.5
45792.3
52143.8
51501.8
57975.6
56856.5
77838.6
77148.4
74512.1
74143.8
71775.6
71649.1
69252.1
69229.1
66869.1
66875.6
64825
64827.4
63436.8
63410.9
62951.9
62873.1
63446.6
63323.2
64828
64693.9
66864.2
66750
69239.7
69179.5
71719.7
71787
74310.8
74635.2
77498.3
78175.3
77549
75955.5
74959.6
73905.5
72998.3
72507.9
71836.9
71666
71247
71222.3
70976.4
71003.9
70879
70900.6
70875.9
70863.5
70933.3
70891.4
71054.3
71016.2
71289.9
71315.2
71750.5
71932.3
72608.2
73123.6
74020.4
75123.5
76099.4
77833.4
73501.7
73413.8
72995.8
72743.2
72152
71952.5
71333.6
71194.5
70623.5
70528
70072.9
70016.6
69730
69698.9
69611.9
69595
69717.3
69716.3
70036.5
70064.3
70550.9
70622.9
71222.8
71343.4
71986.5
72169.8
72775.6
73009.4
73435.8
73516.5
73922.2
73754.3
73526.3
73292.1
72982.6
72818.7
72511.9
72409.1
72139.4
72075
71867.7
71831.4
71705.8
71686.7
71652.7
71643.9
71704
71706.6
71856.3
71878.5
72106.4
72160.1
72446
72541.2
72858.6
73016.6
73329.2
73557.1
73785.5
73954.6
72598.7
72572.8
72478.6
72409.2
72255.5
72195.5
72023.7
71977.8
71813.3
71778.3
71643.6
71620.2
71534.9
71520.5
71496.7
71489
71530.3
71529.9
71631.4
71641.5
71790.5
71814.1
71990.1
72026.4
72206.2
72257.7
72415
72476.2
72572.1
72595.3
72776
72753.1
72691.8
72641.6
72548.5
72504.1
72402.5
72367
72270.1
72242.3
72163.5
72144.4
72095.1
72083.6
72070.8
72065.6
72091.5
72093
72154.6
72164.4
72254
72273.8
72379.3
72408
72515.6
72553.9
72649.6
72693.8
72755.9
72776.4
72377.5
72373
72345.6
72329.1
72282.7
72266.8
72213.6
72199.9
72147.9
72136
72092.7
72083.6
72056.4
72050
72043.4
72039.3
72054.9
72053.2
72089
72090.5
72141.3
72146.5
72204.7
72212.7
72270.2
72281.3
72330.1
72342.7
72371.4
72374.6
72436.5
72432.5
72413.9
72402.4
72373.7
72362.5
72330.4
72320.2
72289
72279.9
72254.1
72247
72231
72226
72222.7
72219.6
72229.7
72228.7
72251.1
72252.5
72284
72288
72323.9
72329.7
72365.2
72372.7
72403.2
72411.6
72430.9
72433.8
72320
72319.4
72310.5
72306.6
72291.8
72287.5
72270.6
72266.5
72250
72246
72232.3
72228.8
72220.4
72217.5
72216.2
72213.8
72220
72218.2
72231.2
72230.3
72248.1
72248.2
72268.2
72268.9
72288.4
72289.9
72306.2
72308.2
72317.9
72317.8
72338.8
72338.1
72332.1
72329.2
72320.1
72317.2
72307
72304.1
72294.3
72291.4
72283.4
72280.8
72276.1
72273.9
72273.5
72271.7
72275.7
72274.4
72282.5
72281.8
72292.8
72292.7
72305.1
72305.4
72317.5
72318.3
72328.6
72329.9
72336.4
72336.5
72305.7
72305.7
72302.7
72301.6
72296.8
72295.6
72290.1
72288.8
72283.6
72282.2
72278
72276.5
72274.2
72272.8
72272.8
72271.4
72274
72272.7
72277.6
72276.5
72282.9
72282.1
72289.2
72288.6
72295.5
72295.2
72300.9
72300.9
72304.4
72304
72312.4
72312.3
72310.3
72309.4
72306.5
72305.6
72302.4
72301.4
72298.4
72297.3
72294.9
72293.9
72292.6
72291.6
72291.8
72290.7
72292.4
72291.5
72294.5
72293.7
72297.7
72297.1
72301.5
72301
72305.3
72305
72308.6
72308.6
72311
72310.8
72303.8
72303.8
72302.8
72302.3
72300.8
72300.3
72298.6
72298
72296.4
72295.8
72294.6
72293.9
72293.3
72292.6
72292.9
72292.1
72293.2
72292.4
72294.3
72293.6
72296
72295.3
72297.9
72297.4
72299.9
72299.5
72301.6
72301.4
72302.8
72302.5
72306.9
72306.9
72306.1
72305.8
72304.8
72304.4
72303.4
72303
72302.1
72301.5
72300.9
72300.4
72300.1
72299.5
72299.8
72299.2
72300
72299.4
72300.6
72300.1
72301.6
72301.1
72302.8
72302.4
72304
72303.7
72305.1
72304.9
72305.9
72305.7
72305.4
72305.4
72305
72304.7
72304.2
72303.9
72303.4
72303.1
72302.6
72302.2
72302
72301.5
72301.5
72301.1
72301.3
72300.8
72301.4
72300.9
72301.7
72301.3
72302.2
72301.8
72302.9
72302.5
72303.5
72303.3
72304.1
72304
72304.6
72304.4
72307.3
72307.3
72307
72306.8
72306.5
72306.2
72305.9
72305.6
72305.4
72305.1
72304.9
72304.6
72304.6
72304.3
72304.5
72304.1
72304.5
72304.2
72304.7
72304.4
72305
72304.7
72305.4
72305.2
72305.8
72305.7
72306.2
72306.1
72306.5
72306.4
72307.8
72307.8
72307.7
72307.5
72307.3
72307.1
72306.9
72306.7
72306.6
72306.3
72306.3
72306
72306.1
72305.8
72306
72305.7
72306
72305.7
72306.1
72305.8
72306.2
72306
72306.4
72306.3
72306.7
72306.6
72306.9
72306.9
72307.2
72307.1
72309.3
72309.3
72309.2
72309
72308.9
72308.7
72308.6
72308.4
72308.3
72308.1
72308.1
72307.9
72308
72307.8
72307.9
72307.7
72307.9
72307.7
72307.9
72307.7
72308
72307.9
72308.2
72308.1
72308.3
72308.3
72308.5
72308.5
72308.7
72308.7
72310.3
72310.3
72310.2
72310.1
72310
72309.8
72309.8
72309.6
72309.6
72309.4
72309.4
72309.3
72309.3
72309.2
72309.3
72309.1
72309.2
72309.1
72309.3
72309.1
72309.3
72309.2
72309.4
72309.3
72309.5
72309.5
72309.7
72309.7
72309.8
72309.8
72311.6
72311.6
72311.5
72311.4
72311.3
72311.2
72311.1
72311
72311
72310.8
72310.9
72310.7
72310.8
72310.6
72310.7
72310.6
72310.7
72310.6
72310.7
72310.6
72310.7
72310.7
72310.8
72310.8
72310.9
72310.9
72311
72311
72311.1
72311.1
72312.7
72312.7
72312.6
72312.5
72312.5
72312.3
72312.3
72312.2
72312.2
72312.1
72312.1
72312
72312
72311.9
72312
72311.9
72311.9
72311.9
72311.9
72311.9
72312
72311.9
72312
72312
72312.1
72312.1
72312.2
72312.2
72312.3
72312.3
72313.8
72313.8
72313.7
72313.6
72313.6
72313.5
72313.5
72313.4
72313.4
72313.3
72313.3
72313.2
72313.2
72313.1
72313.2
72313.1
72313.2
72313.1
72313.2
72313.1
72313.2
72313.2
72313.2
72313.2
72313.3
72313.3
72313.4
72313.4
72313.5
72313.4
72314.8
72314.8
72314.8
72314.7
72314.7
72314.6
72314.6
72314.5
72314.5
72314.4
72314.4
72314.4
72314.4
72314.3
72314.4
72314.3
72314.3
72314.3
72314.3
72314.3
72314.4
72314.3
72314.4
72314.4
72314.4
72314.5
72314.5
72314.5
72314.6
72314.6
72315.7
72315.7
72315.8
72315.7
72315.7
72315.6
72315.6
72315.5
72315.6
72315.5
72315.5
72315.5
72315.5
72315.4
72315.5
72315.4
72315.4
72315.4
72315.5
72315.4
72315.5
72315.4
72315.5
72315.5
72315.5
72315.6
72315.6
72315.6
72315.6
72315.5
72316.5
72316.7
72316.8
72316.8
72316.7
72316.6
72316.6
72316.6
72316.6
72316.6
72316.6
72316.6
72316.6
72316.5
72316.6
72316.5
72316.6
72316.5
72316.6
72316.5
72316.6
72316.6
72316.6
72316.5
72316.6
72316.6
72316.7
72316.7
72316.6
72316.4
SCALARS density float 1
LOOKUP_TABLE default
1.29838
1.29839
1.29839
1.29839
1.29839
1.29839
1.29839
1.29839
1.29839
1.29839
1.29839
1.29839
1.29839
1.29839
1.29839
1.29839
1.29839
1.29839
1.29839
1.29839
1.29839
1.29839
1.29839
1.29839
1.29839
1.29839
1.29839
1.29839
1.29838
1.29838
1.29353
1.29353
1.29353
1.29353
1.29353
1.29353
1.29353
1.29353
1.29353
1.29353
1.29353
1.29353
1.29353
1.29353
1.29353
1.29353
1.29353
1.29353
1.29353
1.29353
1.29353
1.29353
1.29353
1.29353
1.29353
1.29353
1.29353
1.29353
1.29353
1.29353
1.29716
1.29716
1.29716
1.29716
1.29716
1.29716
1.29716
1.29716
1.29716
1.29717
1.29717
1.29717
1.29717
1.29717
1.29717
1.29717
1.29717
1.29717
1.29717
1.29717
1.29717
1.29716
1.29716
1.29716
1.29716
1.29716
1.29716
1.29716
1.29716
1.29716
1.29458
1.29458
1.29458
1.29458
1.29458
1.29458
1.29458
1.29458
1.29458
1.29458
1.29458
1.29458
1.29458
1.29458
1.29458
1.29458
1.29458
1.29458
1.29458
1.29458
1.29458
1.29458
1.29458
1.29458
1.29458
1.29458
1.29458
1.29458
1.29458
1.29458
1.29651
1.29651
1.29651
1.29651
1.29652
1.29652
1.29652
1.29652
1.29652
1.29652
1.29652
1.29652
1.29652
1.29652
1.29652
1.29652
1.29652
1.29652
1.29652
1.29652
1.29652
1.29652
1.29652
1.29652
1.29652
1.29652
1.29651
1.29651
1.29651
1.29651
1.29495
1.29495
1.29494
1.29494
1.29494
1.29494
1.29494
1.29494
1.29494
1.29494
1.29494
1.29494
1.29494
1.29494
1.29494
1.29494
1.29494
1.29494
1.29494
1.29494
1.29494
1.29494
1.29494
1.29494
1.29494
1.29494
1.29494
1.29494
1.29495
1.29495
1.29632
1.29632
1.29633
1.29633
1.29634
1.29634
1.29634
1.29634
1.29635
1.29635
1.29635
1.29635
1.29635
1.29635
1.29634
1.29634
1.29634
1.29635
1.29635
1.29635
1.29635
1.29634
1.29634
1.29634
1.29634
1.29633
1.29633
1.29633
1.29632
1.29632
1.29502
1.29502
1.29501
1.29501
1.29501
1.295
1.295
1.295
1.29499
1.29499
1.29499
1.29499
1.29499
1.29499
1.29499
1.29499
1.29499
1.29499
1.29499
1.29499
1.29499
1.29499
1.295
1.295
1.295
1.295
1.29501
1.29501
1.29501
1.29502
1.29634
1.29634
1.29634
1.29635
1.29636
1.29636
1.29637
1.29637
1.29637
1.29638
1.29637
1.29637
1.29637
1.29637
1.29637
1.29637
1.29637
1.29637
1.29637
1.29637
1.29637
1.29637
1.29637
1.29637
1.29636
1.29636
1.29635
1.29634
1.29634
1.29633
1.29496
1.29496
1.29495
1.29494
1.29493
1.29492
1.29491
1.29491
1.2949
1.2949
1.2949
1.2949
1.2949
1.29489
1.29489
1.29489
1.29489
1.29489
1.29489
1.2949
1.2949
1.2949
1.29491
1.29491
1.29492
1.29493
1.29494
1.29495
1.29496
1.29496
1.29644
1.29645
1.29646
1.29647
1.29648
1.29649
1.2965
1.29651
1.29651
1.29651
1.29651
1.29651
1.29651
1.2965
1.2965
1.2965
1.2965
1.29651
1.29651
1.29651
1.29651
1.29651
1.29651
1.2965
1.29649
1.29648
1.29647
1.29646
1.29644
1.29643
1.29487
1.29486
1.29484
1.29482
1.2948
1.29477
1.29475
1.29473
1.29472
1.29471
1.2947
1.2947
1.29469
1.29469
1.29469
1.29469
1.29469
1.29469
1.2947
1.2947
1.29471
1.29472
1.29473
1.29475
1.29477
1.29479
1.29481
1.29484
1.29486
1.29487
1.29659
1.29661
1.29663
1.29665
1.29667
1.29669
1.29671
1.29672
1.29672
1.29672
1.29672
1.29671
1.2967
1.2967
1.2967
1.2967
1.2967
1.2967
1.29671
1.29671
1.29672
1.29672
1.29672
1.29671
1.29669
1.29667
1.29665
1.29663
1.2966
1.29658
1.29483
1.2948
1.29475
1.2947
1.29465
1.29459
1.29454
1.29449
1.29445
1.29442
1.2944
1.29438
1.29437
1.29436
1.29436
1.29436
1.29436
1.29437
1.29438
1.2944
1.29442
1.29445
1.29448
1.29453
1.29458
1.29464
1.29469
1.29475
1.29479
1.29483
1.29678
1.29681
1.29685
1.29689
1.29693
1.29696
1.29698
1.297
1.29699
1.29698
1.29696
1.29695
1.29692
1.29691
1.2969
1.2969
1.29691
1.29692
1.29694
1.29696
1.29698
1.29699
1.29699
1.29698
1.29696
1.29692
1.29689
1.29684
1.29679
1.29676
1.29503
1.29495
1.29485
1.29472
1.2946
1.29444
1.29431
1.29417
1.29408
1.29398
1.29392
1.29386
1.29383
1.29379
1.29378
1.29378
1.29379
1.29382
1.29385
1.29391
1.29397
1.29407
1.29416
1.2943
1.29442
1.29458
1.2947
1.29484
1.29495
1.29503
1.29704
1.2971
1.29717
1.29723
1.29728
1.29732
1.29734
1.29734
1.2973
1.29725
1.29718
1.29712
1.29706
1.29702
1.297
1.297
1.29701
1.29705
1.29711
1.29717
1.29724
1.29729
1.29733
1.29733
1.29732
1.29727
1.29722
1.29716
1.29707
1.297
1.29603
1.29583
1.29559
1.29524
1.29493
1.29449
1.29416
1.29376
1.29349
1.29319
1.29302
1.29283
1.29273
1.29263
1.2926
1.29259
1.29263
1.29272
1.29282
1.29301
1.29319
1.29347
1.29374
1.29412
1.29446
1.29489
1.29521
1.29557
1.29582
1.29604
1.29763
1.29772
1.29783
1.29785
1.29787
1.29785
1.29779
1.29768
1.29751
1.2973
1.29709
1.29689
1.29672
1.2966
1.29654
1.29654
1.29659
1.29671
1.29687
1.29708
1.29728
1.2975
1.29766
1.29779
1.29784
1.29787
1.29784
1.29781
1.29766
1.29755
1.29958
1.29894
1.29836
1.29728
1.29646
1.29515
1.29425
1.29307
1.29233
1.29146
1.29095
1.29039
1.29009
1.28982
1.28972
1.28972
1.28982
1.29008
1.29039
1.29093
1.29145
1.2923
1.29304
1.29419
1.29509
1.29638
1.29722
1.2983
1.29894
1.29961
1.29978
1.29975
1.2998
1.29936
1.29915
1.29864
1.29828
1.29762
1.29706
1.29631
1.29572
1.29508
1.29465
1.29429
1.29413
1.29413
1.29427
1.29463
1.29505
1.2957
1.29627
1.29704
1.29759
1.29828
1.29863
1.29915
1.29933
1.29977
1.29963
1.29961
1.3122
1.3091
1.30754
1.30337
1.30106
1.29679
1.29435
1.29088
1.28893
1.28654
1.28523
1.28378
1.28304
1.28236
1.28212
1.28212
1.28237
1.28303
1.28378
1.2852
1.28652
1.28886
1.29081
1.29423
1.29667
1.30091
1.30326
1.30744
1.30911
1.31227
1.30988
1.3068
1.30599
1.30244
1.30129
1.29839
1.2972
1.29458
1.29322
1.2909
1.28961
1.28787
1.28697
1.28605
1.28572
1.28572
1.28602
1.28694
1.28781
1.28957
1.29083
1.2932
1.29454
1.29723
1.29837
1.30134
1.30237
1.30594
1.3065
1.3095
1.36425
1.33628
1.33184
1.31302
1.30674
1.29348
1.28764
1.27906
1.27493
1.26988
1.26739
1.26467
1.26338
1.26219
1.26179
1.26179
1.2622
1.26338
1.26468
1.26738
1.26986
1.27483
1.27896
1.28741
1.29329
1.30644
1.31287
1.33165
1.33644
1.36452
1.35028
1.32067
1.31097
1.29398
1.29153
1.28186
1.28101
1.27448
1.27334
1.26859
1.26725
1.26406
1.26305
1.26146
1.26108
1.26108
1.26143
1.26302
1.26401
1.26722
1.26853
1.27336
1.27447
1.28113
1.28186
1.29169