# vtk DataFile Version 3.0
Structured Grid Example
ASCII
DATASET STRUCTURED_GRID
DIMENSIONS 60 120 1
POINTS 7200 FLOAT
0.0208333 0.00833333 0
0.0208333 0.025 0
0.0208333 0.0416667 0
0.0208332 0.0583333 0
0.0208332 0.075 0
0.0208332 0.0916667 0
0.0208332 0.108333 0
0.0208331 0.125 0
0.0208331 0.141667 0
0.0208331 0.158333 0
0.0208331 0.175 0
0.020833 0.191667 0
0.020833 0.208333 0
0.020833 0.225 0
0.020833 0.241667 0
0.020833 0.258333 0
0.0208329 0.275 0
0.0208329 0.291667 0
0.0208329 0.308333 0
0.0208329 0.325 0
0.0208329 0.341667 0
0.0208329 0.358333 0
0.0208329 0.375 0
0.0208328 0.391667 0
0.0208328 0.408333 0
0.0208328 0.425 0
0.0208328 0.441667 0
0.0208328 0.458333 0
0.0208328 0.475 0
0.0208328 0.491667 0
0.0208328 0.508333 0
0.0208328 0.525 0
0.0208328 0.541667 0
0.0208328 0.558333 0
0.0208328 0.575 0
0.0208328 0.591667 0
0.0208328 0.608333 0
0.0208329 0.625 0
0.0208329 0.641667 0
0.0208329 0.658333 0
0.0208329 0.675 0
0.0208329 0.691667 0
0.0208329 0.708333 0
0.0208329 0.725 0
0.020833 0.741667 0
0.020833 0.758333 0
0.020833 0.775 0
0.020833 0.791667 0
0.020833 0.808333 0
0.0208331 0.825 0
0.0208331 0.841667 0
0.0208331 0.858333 0
0.0208331 0.875 0
0.0208332 0.891667 0
0.0208332 0.908333 0
0.0208332 0.925 0
0.0208332 0.941667 0
0.0208333 0.958333 0
0.0208333 0.975 0
0.0208333 0.991667 0
0.0625 0.00833334 0
0.0624999 0.025 0
0.0624998 0.0416667 0
0.0624997 0.0583333 0
0.0624996 0.075 0
0.0624996 0.0916667 0
0.0624995 0.108333 0
0.0624994 0.125 0
0.0624993 0.141667 0
0.0624993 0.158333 0
0.0624992 0.175 0
0.0624991 0.191667 0
0.062499 0.208333 0
0.062499 0.225 0
0.0624989 0.241667 0
0.0624989 0.258333 0
0.0624988 0.275 0
0.0624988 0.291667 0
0.0624987 0.308333 0
0.0624987 0.325 0
0.0624986 0.341667 0
0.0624986 0.358333 0
0.0624986 0.375 0
0.0624985 0.391667 0
0.0624985 0.408333 0
0.0624985 0.425 0
0.0624985 0.441667 0
0.0624984 0.458333 0
0.0624984 0.475 0
0.0624984 0.491667 0
0.0624984 0.508333 0
0.0624984 0.525 0
0.0624984 0.541667 0
0.0624985 0.558333 0
0.0624985 0.575 0
0.0624985 0.591667 0
0.0624985 0.608333 0
0.0624986 0.625 0
0.0624986 0.641667 0
0.0624986 0.658333 0
0.0624987 0.675 0
0.0624987 0.691667 0
0.0624988 0.708333 0
0.0624988 0.725 0
0.0624989 0.741667 0
0.0624989 0.758333 0
0.062499 0.775 0
0.062499 0.791667 0
0.0624991 0.808333 0
0.0624992 0.825 0
0.0624993 0.841667 0
0.0624993 0.858333 0
0.0624994 0.875 0
0.0624995 0.891667 0
0.0624996 0.908333 0
0.0624996 0.925 0
0.0624997 0.941667 0
0.0624998 0.958333 0
0.0624999 0.975 0
0.0625 0.991667 0
0.104167 0.00833334 0
0.104166 0.025 0
0.104166 0.0416667 0
0.104166 0.0583334 0
0.104166 0.075 0
0.104166 0.0916667 0
0.104166 0.108333 0
0.104166 0.125 0
0.104166 0.141667 0
0.104165 0.158333 0
0.104165 0.175 0
0.104165 0.191667 0
0.104165 0.208333 0
0.104165 0.225 0
0.104165 0.241667 0
0.104165 0.258333 0
0.104165 0.275 0
0.104165 0.291667 0
0.104164 0.308333 0
0.104164 0.325 0
0.104164 0.341667 0
0.104164 0.358333 0
0.104164 0.375 0
0.104164 0.391667 0
0.104164 0.408333 0
0.104164 0.425 0
0.104164 0.441667 0
0.104164 0.458333 0
0.104164 0.475 0
0.104164 0.491667 0
0.104164 0.508333 0
0.104164 0.525 0
0.104164 0.541667 0
0.104164 0.558333 0
0.104164 0.575 0
0.104164 0.591667 0
0.104164 0.608333 0
0.104164 0.625 0
0.104164 0.641667 0
0.104164 0.658333 0
0.104164 0.675 0
0.104164 0.691667 0
0.104165 0.708333 0
0.104165 0.725 0
0.104165 0.741667 0
0.104165 0.758333 0
0.104165 0.775 0
0.104165 0.791667 0
0.104165 0.808333 0
0.104165 0.825 0
0.104165 0.841667 0
0.104166 0.858333 0
0.104166 0.875 0
0.104166 0.891667 0
0.104166 0.908333 0
0.104166 0.925 0
0.104166 0.941667 0
0.104166 0.958333 0
0.104166 0.975 0
0.104167 0.991667 0
0.145833 0.00833334 0
0.145833 0.025 0
0.145833 0.0416667 0
0.145833 0.0583334 0
0.145832 0.0750001 0
0.145832 0.0916667 0
0.145832 0.108333 0
0.145832 0.125 0
0.145832 0.141667 0
0.145832 0.158333 0
0.145831 0.175 0
0.145831 0.191667 0
0.145831 0.208333 0
0.145831 0.225 0
0.145831 0.241667 0
0.145831 0.258333 0
0.14583 0.275 0
0.14583 0.291667 0
0.14583 0.308333 0
0.14583 0.325 0
0.14583 0.341667 0
0.14583 0.358333 0
0.14583 0.375 0
0.14583 0.391667 0
0.14583 0.408333 0
0.14583 0.425 0
0.14583 0.441667 0
0.14583 0.458333 0
0.14583 0.475 0
0.14583 0.491667 0
0.14583 0.508333 0
0.14583 0.525 0
0.14583 0.541667 0
0.14583 0.558333 0
0.14583 0.575 0
0.14583 0.591667 0
0.14583 0.608333 0
0.14583 0.625 0
0.14583 0.641667 0
0.14583 0.658333 0
0.14583 0.675 0
0.14583 0.691667 0
0.14583 0.708333 0
0.14583 0.725 0
0.145831 0.741667 0
0.145831 0.758333 0
0.145831 0.775 0
0.145831 0.791667 0
0.145831 0.808333 0
0.145831 0.825 0
0.145832 0.841667 0
0.145832 0.858333 0
0.145832 0.875 0
0.145832 0.891667 0
0.145832 0.908333 0
0.145832 0.925 0
0.145833 0.941667 0
0.145833 0.958333 0
0.145833 0.975 0
0.145833 0.991667 0
0.1875 0.00833334 0
0.1875 0.025 0
0.187499 0.0416667 0
0.187499 0.0583334 0
0.187499 0.0750001 0
0.187499 0.0916668 0
0.187498 0.108333 0
0.187498 0.125 0
0.187498 0.141667 0
0.187498 0.158333 0
0.187497 0.175 0
0.187497 0.191667 0
0.187497 0.208333 0
0.187497 0.225 0
0.187497 0.241667 0
0.187496 0.258333 0
0.187496 0.275 0
0.187496 0.291667 0
0.187496 0.308333 0
0.187496 0.325 0
0.187496 0.341667 0
0.187496 0.358333 0
0.187495 0.375 0
0.187495 0.391667 0
0.187495 0.408333 0
0.187495 0.425 0
0.187495 0.441667 0
0.187495 0.458333 0
0.187495 0.475 0
0.187495 0.491667 0
0.187495 0.508333 0
0.187495 0.525 0
0.187495 0.541667 0
0.187495 0.558333 0
0.187495 0.575 0
0.187495 0.591667 0
0.187495 0.608333 0
0.187495 0.625 0
0.187496 0.641667 0
0.187496 0.658333 0
0.187496 0.675 0
0.187496 0.691667 0
0.187496 0.708333 0
0.187496 0.725 0
0.187496 0.741667 0
0.187497 0.758333 0
0.187497 0.775 0
0.187497 0.791667 0
0.187497 0.808333 0
0.187497 0.825 0
0.187498 0.841667 0
0.187498 0.858333 0
0.187498 0.875 0
0.187498 0.891667 0
0.187499 0.908333 0
0.187499 0.925 0
0.187499 0.941667 0
0.187499 0.958333 0
0.1875 0.975 0
0.1875 0.991667 0
0.229167 0.00833334 0
0.229166 0.025 0
0.229166 0.0416667 0
0.229166 0.0583334 0
0.229165 0.0750001 0
0.229165 0.0916668 0
0.229165 0.108333 0
0.229164 0.125 0
0.229164 0.141667 0
0.229164 0.158334 0
0.229163 0.175 0
0.229163 0.191667 0
0.229163 0.208334 0
0.229163 0.225 0
0.229162 0.241667 0
0.229162 0.258334 0
0.229162 0.275 0
0.229162 0.291667 0
0.229162 0.308334 0
0.229161 0.325 0
0.229161 0.341667 0
0.229161 0.358334 0
0.229161 0.375 0
0.229161 0.391667 0
0.229161 0.408333 0
0.229161 0.425 0
0.229161 0.441667 0
0.22916 0.458333 0
0.22916 0.475 0
0.22916 0.491667 0
0.22916 0.508333 0
0.22916 0.525 0
0.22916 0.541667 0
0.229161 0.558333 0
0.229161 0.575 0
0.229161 0.591667 0
0.229161 0.608333 0
0.229161 0.625 0
0.229161 0.641666 0
0.229161 0.658333 0
0.229161 0.675 0
0.229162 0.691666 0
0.229162 0.708333 0
0.229162 0.725 0
0.229162 0.741666 0
0.229162 0.758333 0
0.229163 0.775 0
0.229163 0.791666 0
0.229163 0.808333 0
0.229163 0.825 0
0.229164 0.841666 0
0.229164 0.858333 0
0.229164 0.875 0
0.229165 0.891667 0
0.229165 0.908333 0
0.229165 0.925 0
0.229166 0.941667 0
0.229166 0.958333 0
0.229166 0.975 0
0.229167 0.991667 0
0.270833 0.00833335 0
0.270833 0.025 0
0.270832 0.0416667 0
0.270832 0.0583334 0
0.270832 0.0750001 0
0.270831 0.0916668 0
0.270831 0.108334 0
0.27083 0.125 0
0.27083 0.141667 0
0.27083 0.158334 0
0.270829 0.175 0
0.270829 0.191667 0
0.270829 0.208334 0
0.270828 0.225 0
0.270828 0.241667 0
0.270828 0.258334 0
0.270828 0.275 0
0.270827 0.291667 0
0.270827 0.308334 0
0.270827 0.325 0
0.270827 0.341667 0
0.270826 0.358334 0
0.270826 0.375 0
0.270826 0.391667 0
0.270826 0.408333 0
0.270826 0.425 0
0.270826 0.441667 0
0.270826 0.458333 0
0.270826 0.475 0
0.270826 0.491667 0
0.270826 0.508333 0
0.270826 0.525 0
0.270826 0.541667 0
0.270826 0.558333 0
0.270826 0.575 0
0.270826 0.591667 0
0.270826 0.608333 0
0.270826 0.625 0
0.270826 0.641666 0
0.270827 0.658333 0
0.270827 0.675 0
0.270827 0.691666 0
0.270827 0.708333 0
0.270828 0.725 0
0.270828 0.741666 0
0.270828 0.758333 0
0.270828 0.775 0
0.270829 0.791666 0
0.270829 0.808333 0
0.270829 0.825 0
0.27083 0.841666 0
0.27083 0.858333 0
0.27083 0.875 0
0.270831 0.891666 0
0.270831 0.908333 0
0.270832 0.925 0
0.270832 0.941667 0
0.270832 0.958333 0
0.270833 0.975 0
0.270833 0.991667 0
0.3125 0.00833335 0
0.312499 0.0250001 0
0.312499 0.0416668 0
0.312498 0.0583335 0
0.312498 0.0750002 0
0.312497 0.0916669 0
0.312497 0.108334 0
0.312497 0.125 0
0.312496 0.141667 0
0.312496 0.158334 0
0.312495 0.175 0
0.312495 0.191667 0
0.312494 0.208334 0
0.312494 0.225 0
0.312494 0.241667 0
0.312493 0.258334 0
0.312493 0.275 0
0.312493 0.291667 0
0.312492 0.308334 0
0.312492 0.325 0
0.312492 0.341667 0
0.312492 0.358334 0
0.312492 0.375 0
0.312491 0.391667 0
0.312491 0.408334 0
0.312491 0.425 0
0.312491 0.441667 0
0.312491 0.458333 0
0.312491 0.475 0
0.312491 0.491667 0
0.312491 0.508333 0
0.312491 0.525 0
0.312491 0.541667 0
0.312491 0.558333 0
0.312491 0.575 0
0.312491 0.591666 0
0.312491 0.608333 0
0.312492 0.625 0
0.312492 0.641666 0
0.312492 0.658333 0
0.312492 0.675 0
0.312492 0.691666 0
0.312493 0.708333 0
0.312493 0.725 0
0.312493 0.741666 0
0.312494 0.758333 0
0.312494 0.775 0
0.312494 0.791666 0
0.312495 0.808333 0
0.312495 0.825 0
0.312496 0.841666 0
0.312496 0.858333 0
0.312497 0.875 0
0.312497 0.891666 0
0.312497 0.908333 0
0.312498 0.925 0
0.312498 0.941667 0
0.312499 0.958333 0
0.312499 0.975 0
0.3125 0.991667 0
0.354166 0.00833336 0
0.354166 0.0250001 0
0.354165 0.0416668 0
0.354165 0.0583335 0
0.354164 0.0750002 0
0.354164 0.0916669 0
0.354163 0.108334 0
0.354163 0.125 0
0.354162 0.141667 0
0.354162 0.158334 0
0.354161 0.175 0
0.354161 0.191667 0
0.35416 0.208334 0
0.35416 0.225 0
0.354159 0.241667 0
0.354159 0.258334 0
0.354158 0.275 0
0.354158 0.291667 0
0.354158 0.308334 0
0.354157 0.325 0
0.354157 0.341667 0
0.354157 0.358334 0
0.354157 0.375 0
0.354157 0.391667 0
0.354156 0.408334 0
0.354156 0.425 0
0.354156 0.441667 0
0.354156 0.458333 0
0.354156 0.475 0
0.354156 0.491667 0
0.354156 0.508333 0
0.354156 0.525 0
0.354156 0.541667 0
[...]
POINT_DATA 7200
SCALARS pressure float 1
LOOKUP_TABLE default
84598.5
84598.5
84598.7
84598.9
84599.2
84599.5
84599.9
84600.3
84600.6
84601
84601.3
84601.6
84601.9
84602.1
84602.2
84602.2
84602.1
84602
84601.9
84601.6
84601.3
84601
84600.7
84600.3
84600
84599.7
84599.5
84599.3
84599.1
84599.1
84599.1
84599.1
84599.3
84599.5
84599.7
84600
84600.3
84600.7
84601
84601.3
84601.6
84601.8
84602
84602.1
84602.2
84602.1
84602
84601.9
84601.6
84601.3
84601
84600.6
84600.2
84599.8
84599.5
84599.2
84598.9
84598.7
84598.5
84598.4
84611.1
84611.1
84611.2
84611.3
84611.5
84611.7
84612
84612.2
84612.4
84612.7
84612.9
84613.1
84613.2
84613.3
84613.3
84613.3
84613.2
84613.1
84612.9
84612.7
84612.5
84612.2
84611.9
84611.7
84611.4
84611.2
84611
84610.8
84610.7
84610.7
84610.7
84610.7
84610.8
84611
84611.2
84611.4
84611.7
84611.9
84612.2
84612.5
84612.7
84612.9
84613.1
84613.2
84613.3
84613.3
84613.3
84613.2
84613
84612.9
84612.7
84612.4
84612.2
84612
84611.7
84611.5
84611.3
84611.2
84611.1
84611.1
84606.9
84606.7
84606.7
84606.5
84606.3
84606
84605.8
84605.4
84605.1
84604.8
84604.5
84604.3
84604
84603.9
84603.7
84603.6
84603.6
84603.6
84603.7
84603.8
84603.9
84604.1
84604.2
84604.4
84604.6
84604.8
84604.9
84605
84605.1
84605.1
84605.1
84605.1
84605
84604.9
84604.8
84604.6
84604.4
84604.2
84604.1
84603.9
84603.8
84603.6
84603.6
84603.6
84603.6
84603.7
84603.9
84604
84604.3
84604.5
84604.8
84605.1
84605.4
84605.8
84606
84606.3
84606.5
84606.7
84606.7
84606.9
84612.6
84612.3
84612.1
84611.6
84611.1
84610.4
84609.8
84609
84608.3
84607.5
84606.9
84606.3
84605.8
84605.4
84605.1
84605
84605
84605.2
84605.5
84605.9
84606.4
84607
84607.5
84608.1
84608.7
84609.2
84609.7
84610
84610.3
84610.4
84610.4
84610.3
84610
84609.7
84609.2
84608.7
84608.1
84607.5
84606.9
84606.4
84605.9
84605.5
84605.2
84605
84605
84605.1
84605.4
84605.8
84606.3
84606.9
84607.5
84608.3
84609
84609.8
84610.4
84611.1
84611.6
84612.1
84612.3
84612.6
84615.3
84614.9
84614.5
84613.6
84612.8
84611.5
84610.3
84608.9
84607.6
84606.2
84605.1
84604
84603.2
84602.6
84602.2
84602.1
84602.3
84602.7
84603.4
84604.3
84605.3
84606.4
84607.6
84608.8
84610
84611
84611.9
84612.7
84613.2
84613.4
84613.4
84613.2
84612.7
84611.9
84611
84610
84608.8
84607.6
84606.4
84605.2
84604.3
84603.4
84602.7
84602.3
84602.1
84602.2
84602.6
84603.2
84604
84605.1
84606.2
84607.6
84608.9
84610.3
84611.5
84612.7
84613.6
84614.5
84614.9
84615.3
84614.8
84614.3
84613.7
84612.5
84611.3
84609.5
84607.9
84606
84604.3
84602.4
84600.9
84599.5
84598.4
84597.6
84597.1
84597
84597.3
84598
84598.9
84600.2
84601.6
84603.2
84604.9
84606.6
84608.2
84609.7
84611
84612
84612.7
84613.1
84613.1
84612.7
84612
84611
84609.7
84608.2
84606.6
84604.9
84603.2
84601.6
84600.2
84598.9
84598
84597.3
84597
84597.1
84597.6
84598.4
84599.5
84600.9
84602.4
84604.3
84606
84607.9
84609.5
84611.2
84612.4
84613.7
84614.3
84614.7
84621.6
84621.1
84620.3
84618.9
84617.5
84615.5
84613.6
84611.3
84609.3
84607.1
84605.3
84603.6
84602.3
84601.3
84600.8
84600.7
84601.1
84601.9
84603
84604.5
84606.2
84608.2
84610.1
84612.2
84614.1
84615.9
84617.4
84618.7
84619.5
84619.9
84619.9
84619.5
84618.7
84617.4
84615.9
84614.1
84612.2
84610.1
84608.2
84606.2
84604.5
84603
84601.9
84601.1
84600.7
84600.8
84601.3
84602.3
84603.5
84605.3
84607
84609.2
84611.2
84613.5
84615.4
84617.5
84618.9
84620.3
84621.1
84621.6
84615.1
84614.6
84613.7
84612.3
84610.8
84608.7
84606.6
84604.2
84602.1
84599.8
84597.9
84596
84594.7
84593.6
84593.1
84592.9
84593.3
84594
84595.2
84596.7
84598.5
84600.5
84602.6
84604.7
84606.7
84608.6
84610.2
84611.4
84612.3
84612.8
84612.8
84612.3
84611.4
84610.2
84608.6
84606.7
84604.7
84602.6
84600.5
84598.5
84596.7
84595.2
84594
84593.3
84592.9
84593.1
84593.6
84594.7
84596
84597.9
84599.7
84602.1
84604.2
84606.6
84608.6
84610.7
84612.3
84613.7
84614.6
84615.1
84623.9
84623.6
84622.7
84621.5
84620
84618.1
84616.2
84614
84612.1
84609.9
84608.2
84606.4
84605.2
84604.2
84603.7
84603.4
84603.7
84604.3
84605.3
84606.6
84608.1
84609.9
84611.7
84613.6
84615.3
84616.9
84618.3
84619.4
84620.2
84620.6
84620.6
84620.2
84619.4
84618.3
84617
84615.3
84613.6
84611.7
84609.9
84608.1
84606.6
84605.3
84604.3
84603.7
84603.4
84603.7
84604.2
84605.2
84606.4
84608.2
84609.9
84612.1
84614
84616.2
84618.1
84620
84621.5
84622.7
84623.6
84623.9
84610.3
84610.2
84609.4
84608.6
84607.4
84606.1
84604.6
84603
84601.5
84599.9
84598.6
84597.2
84596.3
84595.4
84595
84594.7
84594.9
84595.2
84595.9
84596.8
84597.9
84599.1
84600.3
84601.6
84602.9
84604
84605
84605.8
84606.3
84606.6
84606.6
84606.3
84605.8
84605
84604
84602.9
84601.6
84600.3
84599.1
84597.8
84596.8
84595.9
84595.2
84594.9
84594.7
84595
84595.4
84596.3
84597.2
84598.6
84599.9
84601.5
84603
84604.6
84606.1
84607.4
84608.6
84609.4
84610.2
84610.3
84618.8
84619.1
84618.5
84618.3
84617.7
84617.2
84616.4
84615.7
84615
84614.2
84613.7
84612.9
84612.5
84612
84611.8
84611.5
84611.6
84611.6
84611.8
84612.1
84612.5
84612.9
84613.4
84613.8
84614.3
84614.8
84615.1
84615.4
84615.6
84615.7
84615.7
84615.6
84615.4
84615.1
84614.7
84614.3
84613.8
84613.4
84612.9
84612.5
84612.1
84611.8
84611.6
84611.6
84611.5
84611.8
84612
84612.5
84612.9
84613.6
84614.2
84615
84615.7
84616.4
84617.1
84617.6
84618.3
84618.5
84619
84618.8
84598.4
84598.9
84598.7
84599.3
84599.3
84599.8
84600.1
84600.5
84600.8
84601.2
84601.5
84601.6
84601.9
84601.8
84601.9
84601.7
84601.6
84601.2
84600.9
84600.4
84599.9
84599.4
84598.9
84598.3
84597.8
84597.4
84597
84596.7
84596.5
84596.4
84596.4
84596.5
84596.7
84597
84597.4
84597.8
84598.3
84598.9
84599.4
84599.9
84600.4
84600.9
84601.1
84601.5
84601.6
84601.9
84601.8
84601.8
84601.6
84601.5
84601.1
84600.8
84600.5
84600
84599.8
84599.3
84599.3
84598.7
84598.9
84598.4
84608.7
84609.5
84609.7
84611.1
84611.9
84613.5
84614.8
84616.5
84618
84619.5
84620.8
84621.9
84622.9
84623.4
84623.7
84623.6
84623.3
84622.5
84621.6
84620.2
84618.9
84617.2
84615.7
84614
84612.5
84611
84609.8
84608.8
84608.2
84607.8
84607.8
84608.2
84608.8
84609.8
84611
84612.5
84614
84615.7
84617.2
84618.9
84620.2
84621.6
84622.4
84623.3
84623.5
84623.7
84623.3
84622.8
84621.9
84620.8
84619.5
84617.9
84616.5
84614.8
84613.5
84611.8
84611
84609.7
84609.4
84608.7
84585
84586
84586.7
84588.7
84590.3
84593
84595.3
84598.2
84600.7
84603.4
84605.7
84607.7
84609.3
84610.3
84610.9
84610.8
84610.2
84609
84607.4
84605.3
84602.9
84600.2
84597.5
84594.7
84592.2
84589.7
84587.7
84586.1
84585
84584.4
84584.4
84585
84586.1
84587.7
84589.7
84592.2
84594.7
84597.5
84600.2
84602.9
84605.2
84607.4
84609
84610.2
84610.7
84610.9
84610.3
84609.3
84607.7
84605.7
84603.4
84600.7
84598.2
84595.3
84593
84590.3
84588.7
84586.6
84585.9
84585
84600.7
84601.8
84602.9
84605.5
84607.8
84611.3
84614.5
84618.4
84621.8
84625.5
84628.5
84631.3
84633.4
84634.8
84635.6
84635.4
84634.7
84633.1
84630.9
84628
84624.9
84621.2
84617.6
84613.8
84610.4
84607.1
84604.4
84602.2
84600.7
84599.9
84599.9
84600.7
84602.2
84604.4
84607.1
84610.3
84613.8
84617.6
84621.2
84624.9
84628
84630.9
84633
84634.7
84635.4
84635.5
84634.8
84633.3
84631.2
84628.4
84625.4
84621.7
84618.4
84614.4
84611.3
84607.7
84605.4
84602.8
84601.7
84600.6
84575.8
84576.9
84578.4
84581.3
84584.1
84588.2
84591.9
84596.5
84600.5
84604.9
84608.4
84611.7
84614.1
84615.9
84616.7
84616.6
84615.7
84613.8
84611.2
84607.8
84604.1
84599.8
84595.5
84591
84586.9
84583.1
84579.9
84577.3
84575.5
84574.6
84574.6
84575.5
84577.2
84579.9
84583
84586.9
84591
84595.5
84599.7
84604
84607.8
84611.2
84613.7
84615.6
84616.6
84616.7
84615.8
84614.1
84611.7
84608.3
84604.8
84600.5
84596.5
84591.9
84588.1
84584
84581.2
84578.3
84576.9
84575.8
84598.2
84599.3
84600.9
84603.9
84607
84611.3
84615.3
84620.2
84624.4
84629.1
84632.8
84636.4
84639
84640.9
84641.8
84641.8
84640.8
84638.9
84636.2
84632.7
84628.7
84624.2
84619.7
84615
84610.7
84606.6
84603.3
84600.5
84598.7
84597.7
84597.7
84598.7
84600.5
84603.3
84606.6
84610.7
84615
84619.7
84624.2
84628.7
84632.6
84636.2
84638.8
84640.8
84641.8
84641.8
84640.9
84638.9
84636.4
84632.8
84629
84624.4
84620.1
84615.2
84611.2
84606.9
84603.8
84600.9
84599.2
84598.2
84572.6
84573.5
84575.2
84577.9
84581
84585
84588.9
84593.6
84597.7
84602.2
84605.8
84609.3
84611.8
84613.7
84614.6
84614.7
84613.8
84612
84609.5
84606.2
84602.5
84598.2
84594
84589.5
84585.5
84581.6
84578.4
84575.8
84574.1
84573.1
84573.1
84574
84575.8
84578.4
84581.6
84585.4
84589.5
84593.9
84598.2
84602.4
84606.2
84609.4
84612
84613.7
84614.6
84614.5
84613.7
84611.7
84609.3
84605.7
84602.2
84597.6
84593.6
84588.9
84585
84580.9
84577.8
84575.1
84573.4
84572.6
84603.6
84604.1
84605.7
84607.9
84610.7
84614.1
84617.5
84621.5
84625
84628.9
84632
84635.1
84637.2
84639
84639.8
84640.1
84639.4
84638
84636
84633.3
84630.3
84626.8
84623.3
84619.6
84616.3
84613
84610.4
84608.2
84606.8
84606
84606
84606.7
84608.2
84610.4
84613
84616.2
84619.6
84623.3
84626.8
84630.2
84633.3
84635.9
84638
84639.3
84640
84639.7
84639
84637.1
84635
84631.9
84628.9
84624.9
84621.4
84617.4
84614
84610.6
84607.9
84605.7
84604
84603.5
84578
84578.2
84579.5
84580.9
84583
84585.3
84587.8
84590.6
84593.1
84595.9
84598
84600.3
84601.8
84603.2
84603.7
84604
84603.6
84602.8
84601.4
84599.6
84597.5
84595.2
84592.8
84590.2
84587.9
84585.7
84583.9
84582.3
84581.3
84580.8
84580.8
84581.3
84582.3
84583.8
84585.7
84587.9
84590.2
84592.7
84595.1
84597.5
84599.6
84601.3
84602.7
84603.5
84604
84603.6
84603.1
84601.7
84600.3
84598
84595.8
84593
84590.5
84587.7
84585.3
84582.9
84580.8
84579.5
84578.1
84578
84618.5
84618.2
84619.1
84619.5
84620.7
84621.6
84622.8
84624.1
84625.3
84626.7
84627.6
84628.8
84629.4
84630.2
84630.5
84630.8
84630.6
84630.5
84629.9
84629.3
84628.5
84627.6
84626.6
84625.6
84624.6
84623.7
84622.9
84622.2
84621.8
84621.6
84621.6
84621.8
84622.2
84622.9
84623.6
84624.6
84625.5
84626.5
84627.5
84628.4
84629.3
84629.9
84630.4
84630.6
84630.7
84630.4
84630.2
84629.3
84628.7
84627.5
84626.6
84625.2
84624
84622.7
84621.5
84620.6
84619.4
84619
84618.1
84618.4
84590.8
84590.1
84590.4
84589.7
84589.7
84589.1
84588.8
84588.3
84587.8
84587.5
84587
84586.8
84586.4
84586.4
84586.2
84586.5
84586.5
84587
84587.3
84587.9
84588.3
84588.9
84589.5
84590.1
84590.6
84591
84591.4
84591.7
84591.9
84592
84592
84591.9
84591.7
84591.4
84591
84590.5
84590
84589.4
84588.9
84588.3
84587.8
84587.2
84586.9
84586.5
84586.4
84586.1
84586.3
84586.3
84586.7
84586.8
84587.4
84587.7
84588.2
84588.7
84589
84589.6
84589.6
84590.3
84590
84590.7
84638
84636.9
84636.7
84634.9
84633.8
84631.5
84629.8
84627.5
84625.5
84623.5
84621.6
84620.2
84618.8
84618.2
84617.6
84617.9
84618.3
84619.5
84620.7
84622.5
84624.4
84626.7
84628.8
84631.1
84633.2
84635.1
84636.8
84638.1
84639
84639.4
84639.4
84638.9
84638
84636.7
84635.1
84633.1
84631.1
84628.8
84626.6
84624.3
84622.4
84620.6
84619.3
84618.2
84617.8
84617.5
84618.1
84618.7
84620
84621.5
84623.3
84625.4
84627.4
84629.7
84631.4
84633.6
84634.7
84636.5
84636.8
84637.9
84603.2
84601.8
84600.9
84598.1
84595.9
84592.3
84589.1
84585.1
84581.7
84578
84574.9
84572.1
84569.9
84568.5
84567.6
84567.8
84568.4
84570
84572.1
84575
84578.1
84581.7
84585.3
84589.1
84592.5
84595.8
84598.5
84600.7
84602.2
84603
84603
84602.2
84600.7
84598.5
84595.7
84592.5
84589
84585.2
84581.6
84578
84574.9
84572
84569.9
84568.3
84567.6
84567.5
84568.4
84569.8
84572
84574.8
84577.9
84581.5
84585
84589
84592.1
84595.8
84598
84600.8
84601.7
84603
84654.5
84653
84651.5
84648.1
84645
84640.3
84636.2
84631
84626.5
84621.6
84617.6
84614
84611.2
84609.4
84608.3
84608.5
84609.5
84611.7
84614.5
84618.4
84622.5
84627.4
84632.2
84637.3
84641.9
84646.3
84649.9
84652.9
84654.9
84655.9
84655.9
84654.9
84652.9
84649.9
84646.3
84641.9
84637.2
84632.1
84627.3
84622.4
84618.3
84614.4
84611.6
84609.3
84608.4
84608.2
84609.2
84611
84613.8
84617.4
84621.5
84626.3
84630.8
84635.9
84640.1
84644.8
84647.9
84651.3
84652.8
84654.3
84609.5
84608
84606
84602.2
84598.4
84593
84588
84581.9
84576.6
84570.8
84566.1
84561.7
84558.4
84556
84554.7
84554.6
84555.7
84557.9
84561.1
84565.3
84570
84575.4
84580.8
84586.5
84591.8
84596.8
84600.9
84604.3
84606.5
84607.7
84607.7
84606.5
84604.2
84600.9
84596.7
84591.7
84586.5
84580.8
84575.3
84569.9
84565.2
84560.9
84557.8
84555.5
84554.5
84554.5
84555.8
84558.2
84561.5
84565.9
84570.6
84576.4
84581.7
84587.8
84592.8
84598.2
84602
84605.8
84607.7
84609.3
84664.8
84663.4
84661.3
84657.4
84653.4
84647.9
84642.6
84636.3
84630.8
84624.8
84620
84615.3
84612
84609.4
84608.1
84608
84609.1
84611.5
84614.7
84619.1
84623.9
84629.6
84635.2
84641.2
84646.6
84651.8
84656
84659.5
84661.9
84663.1
84663.1
84661.9
84659.5
84656
84651.7
84646.5
84641
84635.1
84629.5
84623.8
84618.9
84614.5
84611.3
84608.9
84607.8
84607.9
84609.2
84611.7
84615.1
84619.7
84624.6
84630.6
84636.1
84642.4
84647.6
84653.2
84657.2
84661
84663.2
84664.6
84608.4
84607.2
84604.9
84601.3
84597.3
84591.8
84586.6
84580.3
84574.9
84568.7
84563.9
84558.9
84555.4
84552.4
84550.9
84550.2
84550.9
84552.5
84555.2
84558.9
84563.1
84568
84573
84578.2
84583
84587.6
84591.5
84594.6
84596.7
84597.8
84597.8
84596.7
84594.6
84591.4
84587.6
84582.9
84578.1
84572.8
84567.8
84562.9
84558.7
84555
84552.4
84550.7
84550
84550.7
84552.2
84555.2
84558.7
84563.6
84568.5
84574.6
84580
84586.3
84591.5
84597
84601
84604.6
84606.9
84608.1
84668.8
84667.9
84665.8
84662.9
84659.3
84654.7
84650.2
84644.8
84640.1
84634.8
84630.5
84626.2
84623.1
84620.4
84618.9
84618.2
84618.5
84619.8
84621.8
84624.7
84628.1
84632
84636
84640.3
84644.2
84648
84651.1
84653.7
84655.4
84656.3
84656.3
84655.4
84653.6
84651
84647.9
84644.1
84640.2
84635.9
84631.9
84627.9
84624.5
84621.6
84619.5
84618.3
84617.9
84618.6
84620.1
84622.8
84625.9
84630.2
84634.4
84639.7
84644.5
84649.8
84654.3
84658.9
84662.5
84665.4
84667.5
84668.4
84600.3
84599.9
84598
84595.7
84592.8
84589
84585.3
84580.8
84576.8
84572.1
84568.4
84564.3
84561.4
84558.3
84556.5
84554.9
84554.4
84554.2
84554.9
84556
84557.8
84559.7
84562
84564.4
84566.6
84568.8
84570.7
84572.2
84573.2
84573.7
84573.7
84573.2
84572.1
84570.6
84568.7
84566.5
84564.2
84561.8
84559.6
84557.6
84555.8
84554.7
84554
84554.1
84554.6
84556.2
84558
84561
84563.9
84568.1
84571.7
84576.4
84580.4
84584.9
84588.6
84592.3
84595.3
84597.6
84599.4
84599.9
84668.2
84668.2
84666.9
84665.8
84663.8
84661.7
84659.3
84656.5
84653.9
84651
84648.5
84645.7
84643.5
84641.2
84639.5
84637.9
84636.9
84636.1
84635.8
84635.7
84635.8
84636.3
84636.8
84637.5
84638.1
84638.8
84639.4
84639.9
84640.2
84640.4
84640.4
84640.2
84639.8
84639.3
84638.7
84637.9
84637.3
84636.6
84636
84635.6
84635.4
84635.5
84635.8
84636.6
84637.6
84639.2
84640.8
84643.1
84645.2
84648
84650.5
84653.5
84656
84658.8
84661.1
84663.2
84665.2
84666.3
84667.6
84667.7
84590.4
84590.6
84589.7
84589.3
84588.1
84587
84585.5
84583.7
84582.1
84579.7
84577.8
84575
84573
84570
84567.7
84564.7
84562.4
84559.5
84557.2
84554.4
84552.2
84549.8
84547.9
84545.8
84544.2
84542.7
84541.5
84540.6
84540
84539.6
84539.6
84539.9
84540.5
84541.4
84542.6
84544.1
84545.7
84547.7
84549.6
84552
84554.2
84556.9
84559.1
84562
84564.4
84567.3
84569.6
84572.5
84574.6
84577.3
84579.2
84581.5
84583.2
84585
84586.4
84587.5
84588.7
84589.1
84590
84589.8
84672.1
84672.6
84672.3
84673
84672.8
84673.3
84673.1
84673.2
84672.8
84672.3
84671.4
84670
84668.5
84666.3
84664
84661
84657.8
84654.2
84650.5
84646.4
84642.4
84638.2
84634.2
84630.5
84626.9
84623.9
84621.3
84619.3
84617.9
84617.2
84617.1
84617.8
84619.2
84621.2
84623.7
84626.8
84630.2
84634
84637.9
84642
84646
84650.1
84653.8
84657.4
84660.5
84663.5
84665.8
84668
84669.5
84670.8
84671.6
84672.2
84672.5
84672.5
84672.6
84672.1
84672.2
84671.6
84671.8
84671.3
84591.2
84591.6
84591.7
84592.3
84592.5
84592.9
84593.1
84592.8
84592.5
84591.2
84590
84587.4
84585
84580.8
84576.9
84571.3
84566.1
84559.2
84552.9
84545.4
84538.5
84530.8
84524
84517
84511.1
84505.5
84501
84497.4
84495
84493.7
84493.7
84495
84497.3
84500.9
84505.3
84510.9
84516.8
84523.7
84530.5
84538.1
84545
84552.5
84558.8
84565.6
84570.8
84576.4
84580.3
84584.4
84586.8
84589.4
84590.6
84591.8
84592.1
84592.3
84592.2
84591.7
84591.5
84590.9
84590.9
84590.5
84694.4
84694.8
84695.2
84696.3
84697
84698.3
84698.9
84699.8
84699.8
84699.6
84698.4
84696.6
84693.8
84690.1
84685.4
84679.6
84673.1
84665.6
84657.7
84649.1
84640.3
84631.4
84622.8
84614.4
84606.9
84600.1
84594.5
84590.1
84587.1
84585.5
84585.5
84587
84589.9
84594.3
84599.9
84606.6
84614.1
84622.4
84631
84639.9
84648.5
84657.2
84665
84672.5
84679
84684.7
84689.3
84693.1
84695.8
84697.6
84698.7
84698.9
84698.9
84698
84697.3
84696
84695.3
84694.2
84693.8
84693.4
84617.7
84617.4
84617.7
84617.4
84617.4
84616.5
84615.9
84614
84612.3
84608.7
84605.3
84599.6
84594.2
84586.1
84578.4
84568.1
84558.4
84546.2
84535
84521.9
84510
84497
84485.5
84473.8
84463.9
84454.5
84447.2
84441.2
84437.3
84435.2
84435.2
84437.2
84441.1
84447.1
84454.3
84463.6
84473.5
84485.2
84496.6
84509.5
84521.4
84534.4
84545.7
84557.7
84567.4
84577.7
84585.3
84593.4
84598.8
84604.4
84607.8
84611.3
84613.1
84614.9
84615.5
84616.3
84616.3
84616.6
84616.4
84616.7
84747.9
84747.4
84747.4
84746.9
84746.3
84745.4
84743.8
84741.8
84738.8
84735.2
84730.3
84724.5
84717.4
84709.2
84699.7
84689.1
84677.7
84665.1
84652.2
84638.7
84625.3
84611.8
84599
84586.8
84575.9
84566.1
84558.2
84551.9
84547.7
84545.5
84545.4
84547.6
84551.7
84558
84565.8
84575.6
84586.4
84598.6
84611.2
84624.7
84638
84651.6
84664.3
84676.9
84688.2
84698.9
84708.2
84716.4
84723.4
84729.2
84734
84737.7
84740.6
84742.5
84744.1
84745
84745.6
84746.1
84746
84746.6
84685
84682.9
84682
84677.7
84674.9
84668.3
84663.3
84654.3
84647
84635.3
84625.5
84611.2
84598.9
84582.3
84567.7
84549.2
84532.9
84513.2
84495.9
84476.2
84459
84440.4
84424.6
84408.4
84395.2
84382.6
84373.1
84365.1
84360.1
84357.4
84357.4
84360
84365
84372.9
84382.3
84394.8
84408
84424.1
84439.9
84458.4
84475.5
84495.2
84512.5
84532
84548.3
84566.7
84581.4
84597.8
84610.2
84624.3
84634.1
84645.7
84653
84662
84667
84673.5
84676.4
84680.6
84681.5
84683.6
84850.3
84847.4
84845.5
84840.1
84835
84827.2
84819
84808.7
84797.6
84784.6
84770.9
84755.4
84739.3
84721.6
84703.6
84684.2
84665
84644.7
84625.2
84605.2
84586.4
84567.7
84550.8
84534.7
84520.8
84508.4
84498.5
84490.6
84485.5
84482.8
84482.7
84485.4
84490.4
84498.3
84508
84520.5
84534.1
84550.3
84567
84585.7
84604.3
84624.4
84643.7
84664
84683
84702.4
84720.2
84738
84753.9
84769.4
84783
84796
84806.9
84817.4
84825.4
84833.3
84838.3
84843.7
84845.5
84848.5
84823.4
84817.3
84813.4
84799.8
84790.1
84770
84755.1
84729.6
84710.3
84680.9
84658
84626.1
84600.7
84567.4
84540.6
84507.2
84480.1
84447.9
84421.6
84391.8
84367.6
84341.2
84320.1
84298.3
84281.5
84265.1
84253.4
84243.2
84237.2
84233.7
84233.7
84237
84243.1
84253.1
84264.8
84281
84297.8
84319.5
84340.6
84366.7
84391
84420.7
84447
84478.9
84506.1
84539.2
84566.1
84599.2
84624.6
84656.4
84679.4
84708.5
84728
84753.2
84768.2
84788.2
84797.9
84811.4
84815.4
84821.5
85038.6
85030.9
85024.4
85008.5
84993.8
84971.1
84949.5
84921.2
84894.3
84861.9
84831.4
84796.3
84763.8
84727.7
84694.6
84658.8
84626.6
84592.4
84562.3
84531
84504.1
84476.8
84454
84431.7
84413.8
84397.3
84384.9
84374.8
84368.5
84365
84364.9
84368.4
84374.5
84384.7
84396.7
84413.3
84430.9
84453.3
84475.8
84503.2
84529.8
84561.2
84591
84625.3
84657.2
84693.2
84725.8
84762.2
84794.3
84829.6
84859.6
84892.3
84918.7
84947.3
84968.5
84991.5
85005.9
85021.9
85028.4
85036
85094.3
85079.2
85069
85033.8
85010.7
84960.1
84926.4
84866
84824.7
84759.4
84713.4
84647.3
84599.4
84535.5
84488.1
84428.6
84383.7
84330.1
84289.4
84242.8
84207.3
84168.5
84139.2
84108.6
84086.1
84064
84048.8
84035.4
84027.8
84023.2
84023.2
84027.6
84035.2
84048.4
84063.6
84085.5
84108
84138.4
84167.7
84206.3
84241.9
84288.2
84329
84382.3
84427.2
84486.4
84533.9
84597.4
84645.5
84711.2
84757.4
84822.2
84863.8
84923.8
84957.7
85007.9
85031.2
85066.2
85076.5
85091.5
85382.7
85364
85347.5
85307.5
85273.7
85218
85171.2
85105.1
85050
84978.6
84919.3
84846.8
84787.1
84716.8
84659.5
84594
84541.2
84482.5
84435.7
84384.9
84345.1
84303
84270.9
84237.9
84213.6
84190
84173.8
84159.6
84151.5
84146.7
84146.6
84151.4
84159.3
84173.5
84189.4
84213.1
84237
84270.1
84301.9
84344.2
84383.4
84434.5
84480.7
84539.7