# vtk DataFile Version 3.0
Structured Grid Example
ASCII
DATASET STRUCTURED_GRID
DIMENSIONS 15 30 1
POINTS 450 FLOAT
0.0833327 0.0333334 0
0.0833313 0.1 0
0.0833301 0.166667 0
0.083329 0.233333 0
0.0833281 0.3 0
0.0833274 0.366667 0
0.083327 0.433333 0
0.0833268 0.5 0
0.083327 0.566667 0
0.0833274 0.633333 0
0.0833281 0.7 0
0.083329 0.766667 0
0.0833301 0.833333 0
0.0833313 0.9 0
0.0833327 0.966667 0
0.249998 0.0333334 0
0.249993 0.1 0
0.249989 0.166667 0
0.249986 0.233334 0
0.249983 0.3 0
0.24998 0.366667 0
0.249979 0.433333 0
0.249979 0.5 0
0.249979 0.566667 0
0.24998 0.633333 0
0.249983 0.7 0
0.249986 0.766666 0
0.249989 0.833333 0
0.249993 0.9 0
0.249998 0.966667 0
0.416662 0.0333336 0
0.416654 0.100001 0
0.416646 0.166668 0
0.416639 0.233334 0
0.416633 0.300001 0
0.416628 0.366667 0
0.416626 0.433334 0
0.416625 0.5 0
0.416626 0.566666 0
0.416628 0.633333 0
0.416633 0.699999 0
0.416639 0.766666 0
0.416646 0.833332 0
0.416654 0.899999 0
0.416662 0.966666 0
0.583326 0.033334 0
0.58331 0.100002 0
0.583296 0.166669 0
0.583284 0.233336 0
0.583273 0.300003 0
0.583266 0.366669 0
0.583261 0.433335 0
0.583259 0.5 0
0.583261 0.566665 0
0.583266 0.633331 0
0.583273 0.699997 0
0.583284 0.766664 0
0.583296 0.833331 0
0.58331 0.899998 0
0.583326 0.966666 0
0.749987 0.0333351 0
0.749961 0.100005 0
0.749937 0.166674 0
0.749915 0.233342 0
0.749898 0.300008 0
0.749884 0.366673 0
0.749876 0.433337 0
0.749874 0.5 0
0.749876 0.566663 0
0.749884 0.633327 0
0.749898 0.699992 0
0.749915 0.766658 0
0.749937 0.833326 0
0.749961 0.899995 0
0.749987 0.966665 0
0.916644 0.033338 0
0.916601 0.100013 0
0.91656 0.166686 0
0.916524 0.233356 0
0.916494 0.300021 0
0.916472 0.366683 0
0.916458 0.433342 0
0.916454 0.5 0
0.916458 0.566658 0
0.916472 0.633317 0
0.916494 0.699979 0
0.916524 0.766644 0
0.91656 0.833314 0
0.916601 0.899987 0
0.916644 0.966662 0
1.0833 0.0333461 0
1.08322 0.100036 0
1.08315 0.166719 0
1.08309 0.233394 0
1.08304 0.300058 0
1.08301 0.366712 0
1.08298 0.433358 0
1.08298 0.5 0
1.08298 0.566642 0
1.08301 0.633288 0
1.08304 0.699942 0
1.08309 0.766606 0
1.08315 0.833281 0
1.08322 0.899964 0
1.0833 0.966654 0
1.24994 0.0333682 0
1.24981 0.100098 0
1.2497 0.16681 0
1.24959 0.233497 0
1.24951 0.300156 0
1.24945 0.366788 0
1.24942 0.433399 0
1.2494 0.5 0
1.24942 0.566601 0
1.24945 0.633212 0
1.24951 0.699844 0
1.24959 0.766503 0
1.2497 0.83319 0
1.24981 0.899902 0
1.24994 0.966632 0
1.41656 0.0334298 0
1.41634 0.10027 0
1.41615 0.16706 0
1.41598 0.233778 0
1.41585 0.300419 0
1.41575 0.36699 0
1.41569 0.433509 0
1.41567 0.5 0
1.41569 0.566491 0
1.41575 0.63301 0
1.41585 0.699581 0
1.41598 0.766222 0
1.41615 0.83294 0
1.41634 0.89973 0
1.41656 0.96657 0
1.58313 0.0336075 0
1.58275 0.10076 0
1.58242 0.167751 0
1.58215 0.234537 0
1.58195 0.301115 0
1.58181 0.367517 0
1.58173 0.433791 0
1.58171 0.5 0
1.58173 0.566209 0
1.58181 0.632483 0
1.58195 0.698885 0
1.58215 0.765463 0
1.58242 0.832249 0
1.58275 0.89924 0
1.58313 0.966392 0
1.74959 0.0341677 0
1.74885 0.102235 0
1.74829 0.169714 0
1.74791 0.236575 0
1.74766 0.302905 0
1.74751 0.368829 0
1.74744 0.434482 0
1.74741 0.5 0
1.74744 0.565518 0
1.74751 0.631171 0
1.74766 0.697095 0
1.74791 0.763425 0
1.74829 0.830286 0
1.74885 0.897765 0
1.74959 0.965832 0
1.91555 0.0363295 0
1.91388 0.107253 0
1.91312 0.175401 0
1.91283 0.241837 0
1.91276 0.307169 0
1.91277 0.371793 0
1.9128 0.435995 0
1.91281 0.5 0
1.9128 0.564005 0
1.91277 0.628207 0
1.91276 0.692831 0
1.91283 0.758163 0
1.91312 0.824599 0
1.91388 0.892747 0
1.91555 0.963671 0
2.07838 0.0591504 0
2.07417 0.125973 0
2.07554 0.190391 0
2.07663 0.253364 0
2.07743 0.315525 0
2.07798 0.377223 0
2.07829 0.438667 0
2.0784 0.5 0
2.07829 0.561333 0
2.07798 0.622777 0
2.07743 0.684475 0
2.07663 0.746636 0
2.07554 0.809609 0
2.07417 0.874027 0
2.07838 0.94085 0
2.24384 0.096456 0
2.23911 0.153168 0
2.24152 0.210396 0
2.24318 0.267878 0
2.24431 0.325632 0
2.24503 0.383617 0
2.24544 0.441767 0
2.24557 0.5 0
2.24544 0.558233 0
2.24503 0.616383 0
2.24431 0.674368 0
2.24318 0.732122 0
2.24152 0.789604 0
2.23911 0.846832 0
2.24384 0.903544 0
2.41462 0.118677 0
2.41292 0.170231 0
2.41356 0.223198 0
2.41406 0.277268 0
2.41444 0.332207 0
2.4147 0.387788 0
2.41485 0.44379 0
2.4149 0.5 0
2.41485 0.55621 0
2.4147 0.612212 0
2.41444 0.667793 0
2.41406 0.722732 0
2.41356 0.776802 0
2.41292 0.829769 0
2.41462 0.881323 0
2.58538 0.118677 0
2.58708 0.170231 0
2.58644 0.223198 0
2.58594 0.277268 0
2.58556 0.332207 0
2.5853 0.387788 0
2.58515 0.44379 0
2.5851 0.5 0
2.58515 0.55621 0
2.5853 0.612212 0
2.58556 0.667793 0
2.58594 0.722732 0
2.58644 0.776802 0
2.58708 0.829769 0
2.58538 0.881323 0
2.75616 0.096456 0
2.76089 0.153168 0
2.75848 0.210396 0
2.75682 0.267878 0
2.75569 0.325632 0
2.75497 0.383617 0
2.75456 0.441767 0
2.75443 0.5 0
2.75456 0.558233 0
2.75497 0.616383 0
2.75569 0.674368 0
2.75682 0.732122 0
2.75848 0.789604 0
2.76089 0.846832 0
2.75616 0.903544 0
2.92162 0.0591504 0
2.92583 0.125973 0
2.92446 0.190391 0
2.92337 0.253364 0
2.92257 0.315525 0
2.92202 0.377223 0
2.92171 0.438667 0
2.9216 0.5 0
2.92171 0.561333 0
2.92202 0.622777 0
2.92257 0.684475 0
2.92337 0.746636 0
2.92446 0.809609 0
2.92583 0.874027 0
2.92162 0.94085 0
3.08445 0.0363295 0
3.08612 0.107253 0
3.08688 0.175401 0
3.08717 0.241837 0
3.08724 0.307169 0
3.08723 0.371793 0
3.0872 0.435995 0
3.08719 0.5 0
3.0872 0.564005 0
3.08723 0.628207 0
3.08724 0.692831 0
3.08717 0.758163 0
3.08688 0.824599 0
3.08612 0.892747 0
3.08445 0.963671 0
3.25041 0.0341677 0
3.25115 0.102235 0
3.25171 0.169714 0
3.25209 0.236575 0
3.25234 0.302905 0
3.25249 0.368829 0
3.25256 0.434482 0
3.25259 0.5 0
3.25256 0.565518 0
3.25249 0.631171 0
3.25234 0.697095 0
3.25209 0.763425 0
3.25171 0.830286 0
3.25115 0.897765 0
3.25041 0.965832 0
3.41687 0.0336075 0
3.41725 0.10076 0
3.41758 0.167751 0
3.41785 0.234537 0
3.41805 0.301115 0
3.41819 0.367517 0
3.41827 0.433791 0
3.41829 0.5 0
3.41827 0.566209 0
3.41819 0.632483 0
3.41805 0.698885 0
3.41785 0.765463 0
3.41758 0.832249 0
3.41725 0.89924 0
3.41687 0.966392 0
3.58344 0.0334298 0
3.58366 0.10027 0
3.58385 0.16706 0
3.58402 0.233778 0
3.58415 0.300419 0
3.58425 0.36699 0
3.58431 0.433509 0
3.58433 0.5 0
3.58431 0.566491 0
3.58425 0.63301 0
3.58415 0.699581 0
3.58402 0.766222 0
3.58385 0.83294 0
3.58366 0.89973 0
3.58344 0.96657 0
3.75006 0.0333682 0
3.75019 0.100098 0
3.7503 0.16681 0
3.75041 0.233497 0
3.75049 0.300156 0
3.75055 0.366788 0
3.75058 0.433399 0
3.7506 0.5 0
3.75058 0.566601 0
3.75055 0.633212 0
3.75049 0.699844 0
3.75041 0.766503 0
3.7503 0.83319 0
3.75019 0.899902 0
3.75006 0.966632 0
3.9167 0.0333461 0
3.91678 0.100036 0
3.91685 0.166719 0
3.91691 0.233394 0
3.91696 0.300058 0
3.91699 0.366712 0
3.91702 0.433358 0
3.91702 0.5 0
3.91702 0.566642 0
3.91699 0.633288 0
3.91696 0.699942 0
3.91691 0.766606 0
3.91685 0.833281 0
3.91678 0.899964 0
3.9167 0.966654 0
4.08336 0.033338 0
4.0834 0.100013 0
4.08344 0.166686 0
4.08348 0.233356 0
4.08351 0.300021 0
4.08353 0.366683 0
4.08354 0.433342 0
4.08355 0.5 0
4.08354 0.566658 0
4.08353 0.633317 0
4.08351 0.699979 0
4.08348 0.766644 0
4.08344 0.833314 0
4.0834 0.899987 0
4.08336 0.966662 0
4.25001 0.0333351 0
4.25004 0.100005 0
4.25006 0.166674 0
4.25008 0.233342 0
4.2501 0.300008 0
4.25012 0.366673 0
4.25012 0.433337 0
4.25013 0.5 0
4.25012 0.566663 0
4.25012 0.633327 0
4.2501 0.699992 0
4.25008 0.766658 0
4.25006 0.833326 0
4.25004 0.899995 0
4.25001 0.966665 0
4.41667 0.033334 0
4.41669 0.100002 0
4.4167 0.166669 0
4.41672 0.233336 0
4.41673 0.300003 0
4.41673 0.366669 0
4.41674 0.433335 0
4.41674 0.5 0
4.41674 0.566665 0
4.41673 0.633331 0
4.41673 0.699997 0
4.41672 0.766664 0
4.4167 0.833331 0
4.41669 0.899998 0
4.41667 0.966666 0
4.58334 0.0333336 0
4.58335 0.100001 0
4.58335 0.166668 0
4.58336 0.233334 0
4.58337 0.300001 0
4.58337 0.366667 0
4.58337 0.433334 0
4.58338 0.5 0
4.58337 0.566666 0
4.58337 0.633333 0
4.58337 0.699999 0
4.58336 0.766666 0
4.58335 0.833332 0
4.58335 0.899999 0
4.58334 0.966666 0
4.75 0.0333334 0
4.75001 0.1 0
4.75001 0.166667 0
4.75001 0.233334 0
4.75002 0.3 0
4.75002 0.366667 0
4.75002 0.433333 0
4.75002 0.5 0
4.75002 0.566667 0
4.75002 0.633333 0
4.75002 0.7 0
4.75001 0.766666 0
4.75001 0.833333 0
4.75001 0.9 0
4.75 0.966667 0
4.91667 0.0333334 0
4.91667 0.1 0
4.91667 0.166667 0
4.91667 0.233333 0
4.91667 0.3 0
4.91667 0.366667 0
4.91667 0.433333 0
4.91667 0.5 0
4.91667 0.566667 0
4.91667 0.633333 0
4.91667 0.7 0
4.91667 0.766667 0
4.91667 0.833333 0
4.91667 0.9 0
4.91667 0.966667 0
POINT_DATA 450
SCALARS pressure float 1
LOOKUP_TABLE default
94472.6
94472.7
94472.7
94472.7
94472.7
94472.7
94472.7
94472.7
94472.7
94472.7
94472.7
94472.7
94472.6
94472.6
94472.6
94232.9
94232.8
94232.9
94232.8
94232.9
94232.8
94232.9
94232.8
94232.9
94232.8
94232.9
94232.7
94232.8
94232.7
94232.8
94531.4
94531.3
94531.3
94531.3
94531.3
94531.2
94531.2
94531.2
94531.2
94531.2
94531.2
94531.2
94531.3
94531.3
94531.3
94168
94167.8
94167.8
94167.2
94167.4
94166.7
94167.1
94166.5
94167
94166.6
94167.3
94167.1
94167.6
94167.5
94167.8
94605.4
94605.2
94605.1
94604.5
94604.3
94603.8
94603.8
94603.4
94603.7
94603.7
94604.3
94604.4
94604.9
94605.1
94605.3
94086.9
94085.6
94085.7
94083
94083.5
94080.4
94081.7
94079.2
94081.6
94080.1
94083.1
94082.4
94085.1
94085
94086.2
94705.8
94704.4
94703.6
94700.5
94699.7
94696.6
94696.9
94694.9
94696.8
94696.4
94699.5
94700.2
94703.3
94704
94705.4
93990.3
93982.7
93982.5
93968.6
93969.5
93955.9
93960.2
93950.6
93959.8
93955.1
93968.3
93967.2
93980.8
93980.9
93988.3
94865.3
94852.7
94847.6
94828.3
94823.2
94806.6
94807.3
94798
94807.1
94806
94822.6
94827.2
94846.6
94851.4
94864.1
93946.3
93882.3
93876.5
93799.1
93794.7
93736.1
93745.5
93712.8
93744.5
93734.2
93791.6
93795.4
93871.7
93877.1
93940.8
95275.8
95127
95087.7
94970.9
94938.1
94863.3
94859.4
94825.4
94858.9
94861.1
94936.8
94966.8
95085.7
95121.9
95273.1
94579.5
93841.3
93801.7
93398.4
93349.5
93157.8
93151.3
93082.1
93148.9
93154.2
93342.1
93390.2
93788.7
93826.5
94560.5
96090
95429.3
95023.7
94717.1
94575.7
94435.9
94399.2
94356.3
94398.6
94430.1
94574.4
94703.6
95023.3
95404.1
96090.5
89234
90315.3
89940.1
90624.6
90430.9
90854.4
90671.6
90935.9
90671.3
90859
90430.2
90636.7
89939.1
90342.2
89225.6
90134.7
91441.8
91331.3
92149.8
91990.6
92508.2
92283
92618
92279.6
92511.2
91980
92157.2
91312.1
91455.9
90098.1
87535.6
88994.5
88787.4
89754.2
89528.3
90169.6
89870.4
90300.5
89863.4
90165.8
89506
89743.4
88746.2
88968.4
87459.3
91730.5
92476
92248.8
92788.2
92572.5
92971.8
92723.8
93032.1
92718.3
92975
92554.4
92793.7
92213.1
92479.4
91667.6
93293.5
92796.4
92664.8
92494.7
92372.8
92378.8
92261.9
92353.1
92258.9
92395.7
92363.7
92532.9
92646.3
92869.1
93287.4
96850.3
95806.1
95620.5
95127.4
94985
94779.9
94714.1
94676.8
94720.9
94793
95007.6
95153.9
95665.3
95846
96953.3
93086.3
93171
93147.4
93179.7
93149.9
93172.6
93140.8
93168.9
93139.8
93174.2
93146.8
93181.1
93141.3
93168.7
93077.2
95063.7
94984.6
94944.3
94853.6
94817
94759
94745.4
94727
94747.7
94763.4
94823.7
94861.4
94954.3
94994.3
95076.1
93601.2
93604.2
93602.1
93603.9
93599.9
93602.3
93597.5
93601.6
93597.4
93602.6
93599.6
93604.1
93601.7
93604.3
93601.3
94582.2
94575.2
94568.1
94554.5
94547.1
94535.8
94533.2
94528.9
94533.7
94536.8
94548.5
94556.1
94569.8
94576.9
94583.8
93844.9
93844.7
93844.2
93843.3
93842.2
93841.5
93840.7
93840.9
93840.8
93841.7
93842.5
93843.6
93844.6
93845.3
93845.7
94389
94387.8
94386.2
94383.4
94381.6
94379
94378.3
94377.3
94378.4
94379.2
94381.7
94383.6
94386.3
94387.9
94389
93970.4
93970.2
93969.9
93969.2
93968.7
93968
93967.8
93967.6
93967.9
93968.2
93968.9
93969.5
93970.3
93970.7
93971
94296.6
94296.3
94295.7
94294.8
94294.1
94293.3
94293
94292.7
94293
94293.3
94294.1
94294.7
94295.5
94296.1
94296.4
94031.9
94031.8
94031.8
94031.6
94031.5
94031.2
94031.2
94031.1
94031.3
94031.4
94031.7
94031.9
94032.1
94032.2
94032.3
94253.8
94253.8
94253.7
94253.5
94253.4
94253.2
94253.1
94253
94253.1
94253.1
94253.3
94253.4
94253.6
94253.7
94253.7
94056.7
94057
94057.2
94057.5
94057.6
94057.7
94057.9
94057.9
94058
94057.9
94057.9
94057.8
94057.7
94057.5
94057.4
SCALARS density float 1
LOOKUP_TABLE default
1.21435
1.21435
1.21435
1.21435
1.21435
1.21435
1.21435
1.21435
1.21435
1.21435
1.21435
1.21435
1.21435
1.21435
1.21435
1.21213
1.21213
1.21213
1.21213
1.21214
1.21214
1.21214
1.21214
1.21214
1.21214
1.21214
1.21213
1.21213
1.21213
1.21213
1.21487
1.21487
1.21487
1.21487
1.21487
1.21487
1.21487
1.21487
1.21487
1.21487
1.21487
1.21487
1.21487
1.21487
1.21487
1.21154
1.21154
1.21154
1.21153
1.21154
1.21153
1.21153
1.21153
1.21153
1.21153
1.21154
1.21153
1.21154
1.21154
1.21154
1.21556
1.21555
1.21555
1.21555
1.21555
1.21554
1.21554
1.21554
1.21554
1.21554
1.21555
1.21555
1.21555
1.21555
1.21556
1.2108
1.21079
1.21079
1.21077
1.21078
1.21075
1.21076
1.21074
1.21076
1.21075
1.21077
1.21077
1.21079
1.21079
1.2108
1.21647
1.21646
1.21645
1.21642
1.21641
1.21638
1.21639
1.21637
1.21638
1.21638
1.21641
1.21642
1.21645
1.21645
1.21647
1.20995
1.20989
1.20989
1.20976
1.20978
1.20965
1.2097
1.20961
1.20969
1.20965
1.20977
1.20975
1.20987
1.20987
1.20993
1.21785
1.21773
1.21769
1.21752
1.21748
1.21732
1.21733
1.21724
1.21733
1.21732
1.21747
1.21751
1.21768
1.21772
1.21784
1.20984
1.20926
1.20917
1.20843
1.20838
1.20783
1.20791
1.20761
1.20791
1.20781
1.20835
1.2084
1.20912
1.20921
1.20979
1.22075
1.21958
1.21936
1.21842
1.21819
1.21755
1.21753
1.21723
1.21753
1.21753
1.21818
1.21839
1.21935
1.21954
1.22075
1.21828
1.21059
1.20975
1.20563
1.20498
1.20304
1.20292
1.20224
1.2029
1.203
1.2049
1.20554
1.20962
1.21044
1.21809
1.22554
1.22053
1.21749
1.21527
1.21422
1.21313
1.21287
1.21252
1.21287
1.21309
1.21422
1.21517
1.2175
1.22027
1.22555
1.16508
1.17577
1.17202
1.17857
1.17676
1.1808
1.17908
1.18158
1.17908
1.18084
1.17676
1.17868
1.172
1.17616
1.16565
1.17438
1.1871
1.18564
1.1932
1.19157
1.19638
1.19423
1.19736
1.1942
1.19641
1.19148
1.19326
1.18547
1.18747
1.17459
1.14858
1.1628
1.16086
1.16994
1.16784
1.17389
1.17113
1.17514
1.17106
1.17385
1.16763
1.16982
1.1605
1.1628
1.14838
1.1882
1.19569
1.19389
1.19887
1.19697
1.20063
1.19841
1.2012
1.19836
1.20066
1.1968
1.19889
1.19358
1.19599
1.18858
1.20198
1.19824
1.19738
1.19564
1.19452
1.19451
1.19351
1.19429
1.19349
1.19467
1.19443
1.19595
1.19724
1.19936
1.20327
1.2326
1.22491
1.22413
1.21988
1.21865
1.21684
1.2163
1.21596
1.21637
1.21695
1.21883
1.22004
1.22457
1.22577
1.23479
1.19921
1.20087
1.20143
1.20197
1.20173
1.20195
1.20171
1.20197
1.2017
1.20196
1.20166
1.20191
1.20145
1.2014
1.20024
1.21748
1.21749
1.2179
1.21738
1.21709
1.21658
1.21649
1.21634
1.21652
1.21661
1.2171
1.21738
1.21809
1.21816
1.21867
1.2042
1.20485
1.20554
1.2059
1.20593
1.20596
1.20594
1.20599
1.20594
1.20595
1.20587
1.20584
1.20568
1.20545
1.20522
1.21325
1.21376
1.21438
1.21463
1.21465
1.21455
1.21455
1.21452
1.21455
1.21454
1.21459
1.21459
1.21457
1.21439
1.21426
1.20654
1.20707
1.20771
1.20809
1.20819
1.20819
1.2082
1.20821
1.2082
1.20817
1.20812
1.20805
1.2079
1.20768
1.20751
1.21156
1.21204
1.21265
1.21303
1.21314
1.21313
1.21312
1.21312
1.21312
1.21309
1.21307
1.213
1.21286
1.21265
1.2125
1.20779
1.20824
1.20884
1.20925
1.20939
1.2094
1.2094
1.2094
1.20939
1.20936
1.20932
1.20923
1.20907
1.20886
1.20871
1.21072
1.21114
1.21172
1.21212
1.21228
1.21229
1.21229
1.21228
1.21227
1.21225
1.2122
1.21211
1.21195
1.21175
1.21161
1.20854
1.20895
1.20951
1.20994
1.21012
1.21014
1.21014
1.21013
1.21012
1.21009
1.21004
1.20994
1.20977
1.20957
1.20943
1.21005
1.21043
1.21097
1.21138
1.21157
1.21161
1.2116
1.21159
1.21158
1.21155
1.2115
1.2114
1.21123
1.21104
1.21091
1.20951
1.20988
1.21041
1.21083
1.21104
1.21108
1.21107
1.21106
1.21105
1.21102
1.21097
1.21086
1.21069
1.2105
1.21037
SCALARS u-velocity float 1
LOOKUP_TABLE default
99.3314
99.3319
99.3324
99.3334
99.3338
99.3347
99.3348
99.3353
99.3351
99.3352
99.3346
99.3343
99.3336
99.3332
99.3328
98.5364
98.5362
98.536
98.5358
98.5356
98.5356
98.5356
98.5357
98.5357
98.5359
98.536
98.5363
98.5366
98.5369
98.537
99.4247
99.4262
99.4276
99.4303
99.4314
99.4338
99.4339
99.4354
99.4344
99.4347
99.4327
99.4319
99.4295
99.4283
99.4269
98.415
98.4138
98.4121
98.4108
98.4099
98.4096
98.4093
98.4095
98.4095
98.4099
98.4102
98.4113
98.4126
98.4143
98.4155
99.5599
99.5667
99.573
99.5843
99.5888
99.5981
99.5985
99.6038
99.5995
99.6
99.5916
99.5878
99.5773
99.5715
99.5651
98.2344
98.2287
98.2214
98.2186
98.2171
98.2196
98.2192
98.2216
98.2195
98.2203
98.2179
98.2197
98.2222
98.2293
98.2346
99.6964
99.7333
99.7638
99.814
99.8334
99.8716
99.8745
99.8937
99.8767
99.8758
99.8398
99.8222
99.7743
99.7457
99.7103
97.9556
97.9294
97.9129
97.9302
97.9454
97.9774
97.9856
98.0034
97.987
97.9805
97.949
97.9354
97.9163
97.9311
97.9544
99.5679
99.8176
99.94
100.167
100.258
100.416
100.439
100.501
100.444
100.425
100.273
100.185
99.9642
99.8499
99.6096
97.127
97.0923
97.2664
97.5361
97.7083
97.9457
98.034
98.13
98.0397
97.959
97.7227
97.5608
97.2867
97.1065
97.112
97.712
99.4645
99.7268
100.862
101.335
101.871
102.051
102.185
102.06
101.887
101.366
100.895
99.7705
99.5267
97.8543
89.2204
94.3168
96.2737
98.127
99.1677
100.311
100.733
101.04
100.75
100.35
99.2106
98.2037
96.3581
94.4737
89.1316
89.9541
94.0824
101.469
103.732
106.188
106.654
107.674
107.442
107.69
106.686
106.245
103.826
101.597
94.1482
90.2531
123.274
119.882
120.5
119.096
119.395
117.941
118.328
117.481
118.328
117.916
119.401
119.023
120.444
119.945
124.468
134.605
130.412
127.416
124.841
123.779
122.021
121.825
121.059
121.842
122.042
123.827
124.841
127.49
130.891
135.794
136.393
132.745
129.476
127.082
125.85
124.427
124.023
123.497
124.055
124.482
125.939
127.177
129.721
133.393
137.561
117.716
120.173
118.092
118.301
117.283
117.368
116.654
116.882
116.676
117.369
117.326
118.247
118.226
120.731
120.034
88.8168
101.248
102.375
105.98
106.269
108.338
107.977
108.896
107.944
108.266
106.12
105.68
102.085
101.872
91.7185
79.3319
90.6087
95.5942
99.0101
100.2
101.947
102.11
102.757
102.066
101.888
99.9759
98.7294
95.3752
91.6985
81.8103
95.6247
98.3432
101.645
102.651
103.083
103.562
103.643
103.869
103.64
103.543
102.96
102.478
101.787
99.6554
98.2068
91.0825
93.837
96.9935
98.5409
99.081
99.5827
99.7339
99.9405
99.7258
99.5411
98.9151
98.347
97.1935
95.1816
93.5479
95.5301
97.6122
100.206
101.448
101.822
101.965
102.055
102.125
102.059
101.93
101.679
101.31
100.53
99.0005
97.9048
93.3444
95.3271
97.7857
99.1804
99.6278
99.7715
99.8489
99.9122
99.8481
99.7173
99.4663
99.0572
98.1689
96.7397
95.6649
95.2706
97.074
99.3456
100.735
101.206
101.295
101.34
101.371
101.337
101.231
101.045
100.646
99.787
98.4901
97.5113
94.1984
95.9027
98.0906
99.5332
100.069
100.172
100.2
100.22
100.189
100.093
99.9021
99.4694
98.5788
97.3319
96.3974
95.1467
96.7397
98.828
100.281
100.866
100.977
100.988
100.995
100.97
100.886
100.698
100.245
99.353
98.1636
97.2849
94.6817
96.1932
98.2153
99.6891
100.326
100.459
100.46
100.456
100.433
100.355
100.159
99.6789
98.7756
97.6213
96.7828
95.1174
96.5484
98.4987
99.9755
100.654
100.81
100.804
100.79
100.767
100.695
100.49
99.9902
99.0862
97.9699
97.1724
95.0099
96.3749
98.2672
99.7486
100.467
100.647
100.638
100.614
100.592
100.522
100.306
99.7868
98.8805
97.7941
97.0301
95.1326
96.4371
98.2723
99.7502
100.502
100.707
100.699
100.668
100.644
100.572
100.346
99.8111
98.907
97.85
97.1168
SCALARS v-velocity float 1
LOOKUP_TABLE default
-0.000257279
-0.000499557
-0.000823099
-0.000826251
-0.000846264
-0.000647965
-0.000455262
-0.00018434
9.52817e-05
0.000308925
0.00054386
0.000572944
0.000630909
0.000380182
0.000215809
0.00043224
0.000670392
0.0012651
0.00116998
0.00130754
0.000975531
0.000768638
0.000389637
-7.3637e-06
-0.000260265
-0.000670643
-0.000637961
-0.000862652
-0.00042047
-0.000345971
-0.000590577
-0.00138521
-0.00198404
-0.00203402
-0.00184128
-0.00135851
-0.000754386
-6.80316e-05
0.0006256
0.00122591
0.0017156
0.00191565
0.00188147
0.00131917
0.00056246
0.0023609
0.00399064
0.00695145
0.00658708
0.00689568
0.00507116
0.00352741
0.00122649
-0.00113566
-0.00281177
-0.00487521
-0.00488195
-0.00564335
-0.00317292
-0.00207227
-0.00125792
-0.00317387
-0.00354989
-0.00312622
-0.0020728
-0.0013315
-0.000471711
0.000105901
0.000710118
0.00148291
0.00216748
0.00311692
0.00344858
0.00308981
0.00118932
0.0119377
0.0209384
0.033826
0.0324343
0.0322531
0.0236617
0.0148399
0.00328347
-0.0084675
-0.0175666
-0.026764
-0.0276959
-0.0300576
-0.0185279
-0.0110392
-0.000648712
0.000267293
0.00884781
0.0130751
0.0169295
0.0137152
0.00917991
0.000952852
-0.0070993
-0.0121793
-0.0156944
-0.0125269
-0.00904512
-0.000607137
0.000225819
0.064311
0.102343
0.152222
0.150029
0.140761
0.104753
0.0597957
0.0082187
-0.0440379
-0.089253
-0.126725
-0.13746
-0.141472
-0.0948588
-0.0610759
0.0296564
0.122398
0.202586
0.216815
0.215517
0.163449
0.0952668
0.00503296
-0.0839727
-0.15506
-0.207945
-0.21255
-0.202215
-0.124533
-0.0335449
0.361687
0.473518
0.654664
0.696354
0.579172
0.450794
0.231434
0.0186367
-0.19692
-0.414867
-0.546963
-0.666096
-0.627709
-0.449891
-0.34522
1.11443
1.75622
2.03814
1.93265
1.68025
1.20652
0.64533
0.0214897
-0.594711
-1.16784
-1.63908
-1.90578
-2.01565
-1.75569
-1.14754
-0.287067
3.34058
2.54241
3.07913
2.0518
1.70531
0.775633
0.0364827
-0.71316
-1.63537
-1.9961
-3.01957
-2.51171
-3.31763
0.329658
23.0501
19.8607
15.8698
12.8184
8.97779
6.08192
2.9288
0.0680467
-2.76502
-5.9427
-8.79268
-12.6774
-15.6382
-19.6792
-22.8199
25.0659
16.0912
13.216
8.75548
6.66831
3.88348
2.06537
0.076911
-1.92001
-3.72676
-6.52378
-8.58264
-13.0448
-15.8921
-25.2438
11.3825
7.04898
6.7123
4.11692
3.69548
1.97893
1.20429
0.069801
-1.11681
-1.8454
-3.63617
-3.99505
-6.70995
-7.01339
-11.6176
-8.2177
-8.52319
-4.70651
-4.79067
-2.39635
-2.0949
-0.685529
0.128537
0.871341
2.35436
2.58717
5.06318
4.91847
8.82179
8.45706
-20.8427
-18.0283
-12.0935
-10.01
-6.19801
-4.36927
-1.83283
0.158522
2.06387
4.70976
6.46326
10.4314
12.4818
18.7065
21.5377
-23.2008
-18.3573
-14.3912
-10.8599
-7.82957
-4.97024
-2.41206
0.189694
2.61272
5.37324
8.03314
11.352
14.6366
19.1335
23.7936
-2.4877
-0.544763
-2.26105
-1.35759
-1.7679
-0.925285
-0.623455
0.0470816
0.652637
1.00503
1.77619
1.4114
2.23655
0.481431
2.35253
-1.84361
-2.15954
-2.62151
-2.14805
-1.98916
-1.25706
-0.69045
0.0554782
0.755182
1.35709
2.04771
2.23253
2.65507
2.11501
1.81653
-0.205709
-0.298482
-0.392455
-0.232415
-0.353898
-0.184633
-0.13698
0.0118812
0.144302
0.204312
0.367122
0.256512
0.393405
0.252688
0.180186
-0.170507
-0.360271
-0.419692
-0.331993
-0.358232
-0.236969
-0.140853
0.0113105
0.154461
0.257553
0.377958
0.353125
0.414292
0.314775
0.146331
-0.0421687
-0.112581
-0.0840974
-0.0295637
-0.051555
-0.0355336
-0.028334
0.00245403
0.0305117
0.043185
0.0647341
0.0439195
0.0782019
0.0804836
0.0239882
-0.0455092
-0.109872
-0.0896747
-0.0452226
-0.0470461
-0.0391638
-0.0276284
0.000174685
0.0272733
0.0437301
0.0569126
0.0525389
0.0763086
0.0763042
0.0273933
-0.0274355
-0.0615728
-0.0332829
0.0043274
0.00712473
-0.00073626
-0.00551955
-0.00045203
0.0053771
0.00582855
0.00365213
0.00343223
0.023161
0.0358639
0.0134141
-0.0279481
-0.0601337
-0.0384026
-0.00381246
0.00483214
-0.00160203
-0.00613689
-0.00232859
0.00291191
0.00367045
0.00194402
0.00593462
0.0237192
0.0335693
0.0142799
-0.0218013
-0.0448144
-0.0244987
0.00643107
0.0161711
0.00842457
0.000241261
-0.00142811
-0.00123349
-0.00405795
-0.00771223
-0.00303361
0.0128044
0.0231742
0.0106792
-0.0214815
-0.0448358
-0.0290341
-0.000543235
0.011423
0.0062601
-0.00099939
-0.00278233
-0.00248124
-0.00449942
-0.00643057
-0.00016635
0.0145483
0.0227963
0.0106627
-0.0181869
-0.0376629
-0.0239483
0.00172906
0.0139409
0.00970315
0.00178279
-0.00196918
-0.00350024
-0.00632125
-0.00797039
-0.00163031
0.011555
0.0188316
0.00899711
-0.0187883
-0.03986
-0.0287622
-0.00412257
0.00947974
0.00734259
0.000622926
-0.00269013
-0.00372071
-0.00549009
-0.0056192
0.0016835
0.0143828
0.0202038
0.00946616
SCALARS Mach float 1
LOOKUP_TABLE default
0.247855
0.247856
0.247857
0.247859
0.247861
0.247863
0.247863
0.247864
0.247864
0.247864
0.247862
0.247862
0.24786
0.247859
0.247858
0.246409
0.246408
0.246408
0.246407
0.246407
0.246407
0.246406
0.246407
0.246407
0.246407
0.246408
0.246409
0.246409
0.24641
0.246411
0.247957
0.247961
0.247964
0.247971
0.247974
0.24798
0.24798
0.247984
0.247981
0.247982
0.247977
0.247975
0.247969
0.247966
0.247963
0.24625
0.246248
0.246243
0.246241
0.246239
0.246239
0.246238
0.24624
0.246238
0.24624
0.24624
0.246243
0.246245
0.24625
0.246252
0.248128
0.248145
0.248161
0.24819
0.248202
0.248226
0.248227
0.248241
0.24823
0.248231
0.248209
0.248199
0.248172
0.248157
0.248141
0.245979
0.245968
0.245949
0.245948
0.245943
0.245956
0.245952
0.245963
0.245953
0.245958
0.245946
0.245952
0.245952
0.245971
0.245981
0.248243
0.248338
0.248416
0.248548
0.248598
0.2487
0.248707
0.248759
0.248712
0.248711
0.248614
0.248569
0.248442
0.248369
0.248278
0.245494
0.245444
0.245403
0.245477
0.245513
0.245623
0.245634
0.2457
0.245638
0.245633
0.245525
0.245493
0.245416
0.245453
0.245495
0.247574
0.248224
0.248539
0.249147
0.249384
0.249813
0.24987
0.250046
0.249882
0.249837
0.249421
0.249193
0.248601
0.248307
0.24768
0.243487
0.243543
0.243998
0.244851
0.245293
0.246019
0.246218
0.246533
0.246235
0.246057
0.245335
0.244921
0.244059
0.24359
0.243462
0.242163
0.24684
0.247577
0.25064
0.251871
0.253353
0.253793
0.2542
0.253816
0.253396
0.251948
0.250729
0.247688
0.247005
0.24252
0.222141
0.236648
0.241625
0.247265
0.24995
0.253278
0.254337
0.255271
0.254382
0.253383
0.250073
0.247473
0.241865
0.237071
0.22196
0.228699
0.23812
0.255193
0.26037
0.265779
0.266745
0.269039
0.268459
0.269071
0.266819
0.265883
0.260589
0.255419
0.238245
0.229271
0.329732
0.313707
0.315555
0.308819
0.30981
0.304493
0.305901
0.302902
0.305895
0.3044
0.309807
0.308563
0.315367
0.313703
0.332827
0.350909
0.33502
0.327698
0.318365
0.316115
0.310031
0.310161
0.307238
0.310213
0.310067
0.316263
0.318336
0.327947
0.336165
0.35408
0.364201
0.349472
0.341072
0.331679
0.329
0.323273
0.323098
0.320407
0.323205
0.323439
0.329312
0.331991
0.341869
0.351275
0.367539
0.306036
0.308852
0.302314
0.300845
0.29819
0.297104
0.295796
0.295501
0.295875
0.29713
0.298386
0.300787
0.302855
0.310471
0.312247
0.231681
0.2608
0.262303
0.27075
0.271113
0.275925
0.275076
0.27712
0.275009
0.275747
0.270795
0.270033
0.261705
0.262488
0.239024
0.19415
0.223545
0.236211
0.245666
0.248946
0.253721
0.254263
0.255956
0.25414
0.253545
0.248342
0.244921
0.235571
0.226106
0.199915
0.241933
0.24854
0.256881
0.259291
0.26044
0.261564
0.261829
0.262324
0.261823
0.261519
0.260145
0.258862
0.257247
0.2518
0.248368
0.226273
0.233213
0.24107
0.245083
0.246505
0.24788
0.248282
0.248836
0.248256
0.247767
0.246082
0.244592
0.241534
0.236477
0.232269
0.240484
0.245657
0.252114
0.255198
0.256142
0.256496
0.256728
0.256893
0.256738
0.256407
0.255789
0.254858
0.252918
0.249088
0.246358
0.232887
0.237792
0.243872
0.247342
0.248466
0.248849
0.249046
0.249212
0.249043
0.248714
0.248067
0.247037
0.244807
0.241251
0.238574
0.239286
0.243764
0.249402
0.25285
0.254023
0.254249
0.254363
0.254439
0.254354
0.254091
0.253626
0.25263
0.250489
0.247255
0.244815
0.235422
0.239635
0.245043
0.248611
0.249941
0.250203
0.250273
0.250326
0.250246
0.250009
0.249531
0.248455
0.246241
0.243145
0.240824
0.238693
0.242644
0.24782
0.251423
0.252874
0.253154
0.253182
0.253199
0.253136
0.252929
0.252461
0.251334
0.249113
0.246151
0.243963
0.236828
0.240567
0.245566
0.249211
0.250787
0.251121
0.251124
0.251114
0.251056
0.250865
0.250377
0.249186
0.246943
0.244077
0.241994
0.238467
0.242014
0.246845
0.250502
0.252184
0.252571
0.252558
0.252523
0.252468
0.252289
0.251779
0.250538
0.24829
0.245513
0.243529
0.237769
0.241146
0.245827
0.24949
0.251268
0.251714
0.251692
0.251635
0.25158
0.251407
0.250872
0.249584
0.247334
0.244636
0.242738
0.238378
0.241609
0.246153
0.249811
0.251672
0.252179
0.25216
0.252085
0.252025
0.25185
0.251288
0.24996
0.247714
0.245086
0.243263
