# vtk DataFile Version 3.0
Structured Grid Example
ASCII
DATASET STRUCTURED_GRID
DIMENSIONS 15 30 1
POINTS 450 FLOAT
0.0833327 0.0333334 0
0.0833313 0.1 0
0.0833301 0.166667 0
0.083329 0.233333 0
0.0833281 0.3 0
0.0833274 0.366667 0
0.083327 0.433333 0
0.0833268 0.5 0
0.083327 0.566667 0
0.0833274 0.633333 0
0.0833281 0.7 0
0.083329 0.766667 0
0.0833301 0.833333 0
0.0833313 0.9 0
0.0833327 0.966667 0
0.249998 0.0333334 0
0.249993 0.1 0
0.249989 0.166667 0
0.249986 0.233334 0
0.249983 0.3 0
0.24998 0.366667 0
0.249979 0.433333 0
0.249979 0.5 0
0.249979 0.566667 0
0.24998 0.633333 0
0.249983 0.7 0
0.249986 0.766666 0
0.249989 0.833333 0
0.249993 0.9 0
0.249998 0.966667 0
0.416662 0.0333336 0
0.416654 0.100001 0
0.416646 0.166668 0
0.416639 0.233334 0
0.416633 0.300001 0
0.416628 0.366667 0
0.416626 0.433334 0
0.416625 0.5 0
0.416626 0.566666 0
0.416628 0.633333 0
0.416633 0.699999 0
0.416639 0.766666 0
0.416646 0.833332 0
0.416654 0.899999 0
0.416662 0.966666 0
0.583326 0.033334 0
0.58331 0.100002 0
0.583296 0.166669 0
0.583284 0.233336 0
0.583273 0.300003 0
0.583266 0.366669 0
0.583261 0.433335 0
0.583259 0.5 0
0.583261 0.566665 0
0.583266 0.633331 0
0.583273 0.699997 0
0.583284 0.766664 0
0.583296 0.833331 0
0.58331 0.899998 0
0.583326 0.966666 0
0.749987 0.0333351 0
0.749961 0.100005 0
0.749937 0.166674 0
0.749915 0.233342 0
0.749898 0.300008 0
0.749884 0.366673 0
0.749876 0.433337 0
0.749874 0.5 0
0.749876 0.566663 0
0.749884 0.633327 0
0.749898 0.699992 0
0.749915 0.766658 0
0.749937 0.833326 0
0.749961 0.899995 0
0.749987 0.966665 0
0.916644 0.033338 0
0.916601 0.100013 0
0.91656 0.166686 0
0.916524 0.233356 0
0.916494 0.300021 0
0.916472 0.366683 0
0.916458 0.433342 0
0.916454 0.5 0
0.916458 0.566658 0
0.916472 0.633317 0
0.916494 0.699979 0
0.916524 0.766644 0
0.91656 0.833314 0
0.916601 0.899987 0
0.916644 0.966662 0
1.0833 0.0333461 0
1.08322 0.100036 0
1.08315 0.166719 0
1.08309 0.233394 0
1.08304 0.300058 0
1.08301 0.366712 0
1.08298 0.433358 0
1.08298 0.5 0
1.08298 0.566642 0
1.08301 0.633288 0
1.08304 0.699942 0
1.08309 0.766606 0
1.08315 0.833281 0
1.08322 0.899964 0
1.0833 0.966654 0
1.24994 0.0333682 0
1.24981 0.100098 0
1.2497 0.16681 0
1.24959 0.233497 0
1.24951 0.300156 0
1.24945 0.366788 0
1.24942 0.433399 0
1.2494 0.5 0
1.24942 0.566601 0
1.24945 0.633212 0
1.24951 0.699844 0
1.24959 0.766503 0
1.2497 0.83319 0
1.24981 0.899902 0
1.24994 0.966632 0
1.41656 0.0334298 0
1.41634 0.10027 0
1.41615 0.16706 0
1.41598 0.233778 0
1.41585 0.300419 0
1.41575 0.36699 0
1.41569 0.433509 0
1.41567 0.5 0
1.41569 0.566491 0
1.41575 0.63301 0
1.41585 0.699581 0
1.41598 0.766222 0
1.41615 0.83294 0
1.41634 0.89973 0
1.41656 0.96657 0
1.58313 0.0336075 0
1.58275 0.10076 0
1.58242 0.167751 0
1.58215 0.234537 0
1.58195 0.301115 0
1.58181 0.367517 0
1.58173 0.433791 0
1.58171 0.5 0
1.58173 0.566209 0
1.58181 0.632483 0
1.58195 0.698885 0
1.58215 0.765463 0
1.58242 0.832249 0
1.58275 0.89924 0
1.58313 0.966392 0
1.74959 0.0341677 0
1.74885 0.102235 0
1.74829 0.169714 0
1.74791 0.236575 0
1.74766 0.302905 0
1.74751 0.368829 0
1.74744 0.434482 0
1.74741 0.5 0
1.74744 0.565518 0
1.74751 0.631171 0
1.74766 0.697095 0
1.74791 0.763425 0
1.74829 0.830286 0
1.74885 0.897765 0
1.74959 0.965832 0
1.91555 0.0363295 0
1.91388 0.107253 0
1.91312 0.175401 0
1.91283 0.241837 0
1.91276 0.307169 0
1.91277 0.371793 0
1.9128 0.435995 0
1.91281 0.5 0
1.9128 0.564005 0
1.91277 0.628207 0
1.91276 0.692831 0
1.91283 0.758163 0
1.91312 0.824599 0
1.91388 0.892747 0
1.91555 0.963671 0
2.07838 0.0591504 0
2.07417 0.125973 0
2.07554 0.190391 0
2.07663 0.253364 0
2.07743 0.315525 0
2.07798 0.377223 0
2.07829 0.438667 0
2.0784 0.5 0
2.07829 0.561333 0
2.07798 0.622777 0
2.07743 0.684475 0
2.07663 0.746636 0
2.07554 0.809609 0
2.07417 0.874027 0
2.07838 0.94085 0
2.24384 0.096456 0
2.23911 0.153168 0
2.24152 0.210396 0
2.24318 0.267878 0
2.24431 0.325632 0
2.24503 0.383617 0
2.24544 0.441767 0
2.24557 0.5 0
2.24544 0.558233 0
2.24503 0.616383 0
2.24431 0.674368 0
2.24318 0.732122 0
2.24152 0.789604 0
2.23911 0.846832 0
2.24384 0.903544 0
2.41462 0.118677 0
2.41292 0.170231 0
2.41356 0.223198 0
2.41406 0.277268 0
2.41444 0.332207 0
2.4147 0.387788 0
2.41485 0.44379 0
2.4149 0.5 0
2.41485 0.55621 0
2.4147 0.612212 0
2.41444 0.667793 0
2.41406 0.722732 0
2.41356 0.776802 0
2.41292 0.829769 0
2.41462 0.881323 0
2.58538 0.118677 0
2.58708 0.170231 0
2.58644 0.223198 0
2.58594 0.277268 0
2.58556 0.332207 0
2.5853 0.387788 0
2.58515 0.44379 0
2.5851 0.5 0
2.58515 0.55621 0
2.5853 0.612212 0
2.58556 0.667793 0
2.58594 0.722732 0
2.58644 0.776802 0
2.58708 0.829769 0
2.58538 0.881323 0
2.75616 0.096456 0
2.76089 0.153168 0
2.75848 0.210396 0
2.75682 0.267878 0
2.75569 0.325632 0
2.75497 0.383617 0
2.75456 0.441767 0
2.75443 0.5 0
2.75456 0.558233 0
2.75497 0.616383 0
2.75569 0.674368 0
2.75682 0.732122 0
2.75848 0.789604 0
2.76089 0.846832 0
2.75616 0.903544 0
2.92162 0.0591504 0
2.92583 0.125973 0
2.92446 0.190391 0
2.92337 0.253364 0
2.92257 0.315525 0
2.92202 0.377223 0
2.92171 0.438667 0
2.9216 0.5 0
2.92171 0.561333 0
2.92202 0.622777 0
2.92257 0.684475 0
2.92337 0.746636 0
2.92446 0.809609 0
2.92583 0.874027 0
2.92162 0.94085 0
3.08445 0.0363295 0
3.08612 0.107253 0
3.08688 0.175401 0
3.08717 0.241837 0
3.08724 0.307169 0
3.08723 0.371793 0
3.0872 0.435995 0
3.08719 0.5 0
3.0872 0.564005 0
3.08723 0.628207 0
3.08724 0.692831 0
3.08717 0.758163 0
3.08688 0.824599 0
3.08612 0.892747 0
3.08445 0.963671 0
3.25041 0.0341677 0
3.25115 0.102235 0
3.25171 0.169714 0
3.25209 0.236575 0
3.25234 0.302905 0
3.25249 0.368829 0
3.25256 0.434482 0
3.25259 0.5 0
3.25256 0.565518 0
3.25249 0.631171 0
3.25234 0.697095 0
3.25209 0.763425 0
3.25171 0.830286 0
3.25115 0.897765 0
3.25041 0.965832 0
3.41687 0.0336075 0
3.41725 0.10076 0
3.41758 0.167751 0
3.41785 0.234537 0
3.41805 0.301115 0
3.41819 0.367517 0
3.41827 0.433791 0
3.41829 0.5 0
3.41827 0.566209 0
3.41819 0.632483 0
3.41805 0.698885 0
3.41785 0.765463 0
3.41758 0.832249 0
3.41725 0.89924 0
3.41687 0.966392 0
3.58344 0.0334298 0
3.58366 0.10027 0
3.58385 0.16706 0
3.58402 0.233778 0
3.58415 0.300419 0
3.58425 0.36699 0
3.58431 0.433509 0
3.58433 0.5 0
3.58431 0.566491 0
3.58425 0.63301 0
3.58415 0.699581 0
3.58402 0.766222 0
3.58385 0.83294 0
3.58366 0.89973 0
3.58344 0.96657 0
3.75006 0.0333682 0
3.75019 0.100098 0
3.7503 0.16681 0
3.75041 0.233497 0
3.75049 0.300156 0
3.75055 0.366788 0
3.75058 0.433399 0
3.7506 0.5 0
3.75058 0.566601 0
3.75055 0.633212 0
3.75049 0.699844 0
3.75041 0.766503 0
3.7503 0.83319 0
3.75019 0.899902 0
3.75006 0.966632 0
3.9167 0.0333461 0
3.91678 0.100036 0
3.91685 0.166719 0
3.91691 0.233394 0
3.91696 0.300058 0
3.91699 0.366712 0
3.91702 0.433358 0
3.91702 0.5 0
3.91702 0.566642 0
3.91699 0.633288 0
3.91696 0.699942 0
3.91691 0.766606 0
3.91685 0.833281 0
3.91678 0.899964 0
3.9167 0.966654 0
4.08336 0.033338 0
4.0834 0.100013 0
4.08344 0.166686 0
4.08348 0.233356 0
4.08351 0.300021 0
4.08353 0.366683 0
4.08354 0.433342 0
4.08355 0.5 0
4.08354 0.566658 0
4.08353 0.633317 0
4.08351 0.699979 0
4.08348 0.766644 0
4.08344 0.833314 0
4.0834 0.899987 0
4.08336 0.966662 0
4.25001 0.0333351 0
4.25004 0.100005 0
4.25006 0.166674 0
4.25008 0.233342 0
4.2501 0.300008 0
4.25012 0.366673 0
4.25012 0.433337 0
4.25013 0.5 0
4.25012 0.566663 0
4.25012 0.633327 0
4.2501 0.699992 0
4.25008 0.766658 0
4.25006 0.833326 0
4.25004 0.899995 0
4.25001 0.966665 0
4.41667 0.033334 0
4.41669 0.100002 0
4.4167 0.166669 0
4.41672 0.233336 0
4.41673 0.300003 0
4.41673 0.366669 0
4.41674 0.433335 0
4.41674 0.5 0
4.41674 0.566665 0
4.41673 0.633331 0
4.41673 0.699997 0
4.41672 0.766664 0
4.4167 0.833331 0
4.41669 0.899998 0
4.41667 0.966666 0
4.58334 0.0333336 0
4.58335 0.100001 0
4.58335 0.166668 0
4.58336 0.233334 0
4.58337 0.300001 0
4.58337 0.366667 0
4.58337 0.433334 0
4.58338 0.5 0
4.58337 0.566666 0
4.58337 0.633333 0
4.58337 0.699999 0
4.58336 0.766666 0
4.58335 0.833332 0
4.58335 0.899999 0
4.58334 0.966666 0
4.75 0.0333334 0
4.75001 0.1 0
4.75001 0.166667 0
4.75001 0.233334 0
4.75002 0.3 0
4.75002 0.366667 0
4.75002 0.433333 0
4.75002 0.5 0
4.75002 0.566667 0
4.75002 0.633333 0
4.75002 0.7 0
4.75001 0.766666 0
4.75001 0.833333 0
4.75001 0.9 0
4.75 0.966667 0
4.91667 0.0333334 0
4.91667 0.1 0
4.91667 0.166667 0
4.91667 0.233333 0
4.91667 0.3 0
4.91667 0.366667 0
4.91667 0.433333 0
4.91667 0.5 0
4.91667 0.566667 0
4.91667 0.633333 0
4.91667 0.7 0
4.91667 0.766667 0
4.91667 0.833333 0
4.91667 0.9 0
4.91667 0.966667 0
POINT_DATA 450
SCALARS pressure float 1
LOOKUP_TABLE default
86135.7
86135.7
86135.7
86135.6
86135.6
86135.6
86135.5
86135.5
86135.5
86135.4
86135.4
86135.4
86135.4
86135.4
86135.4
85799.4
85799.4
85799.3
85799.3
85799.2
85799.2
85799.1
85799.1
85799.1
85799.1
85799
85799
85799
85799
85799.1
85868.7
85868.6
85868.5
85868.4
85868.3
85868.2
85868.1
85868
85867.9
85867.9
85867.9
85868
85868
85868
85868.1
85910.2
85910
85909.8
85909.6
85909.3
85909
85908.8
85908.6
85908.6
85908.6
85908.7
85908.8
85908.9
85909
85909.1
85896.5
85896.1
85895.7
85895
85894.4
85893.7
85893.2
85892.9
85892.9
85893
85893.3
85893.7
85894.1
85894.4
85894.7
85894.8
85893.7
85892.5
85890.7
85888.9
85887.3
85886.1
85885.5
85885.5
85886.1
85887.1
85888.4
85889.7
85890.7
85891.7
85908.3
85905.5
85902
85897.4
85892.6
85888.5
85885.5
85884.1
85884.4
85886.3
85889.4
85893.3
85897.3
85900.3
85902.8
85919.4
85910.7
85901.6
85889.9
85878.4
85868.8
85862
85859
85860
85864.8
85872.7
85882.5
85893
85901.2
85909.4
86030.6
85998.2
85963
85924.9
85889.3
85861.2
85842.5
85835
85839.3
85854.8
85880.1
85913.2
85949.3
85983.2
86015
86000.9
85928
85877.6
85808.7
85748
85699.3
85667
85654
85661
85687.3
85730.1
85785.3
85849.3
85895.4
85966
87270.7
86588.3
86315.9
86001.4
85782.3
85622.9
85526.9
85492.6
85518.9
85607.1
85758.8
85971.3
86280.2
86547.9
87238.3
85930.9
85398.7
85295.7
84995.2
84803.8
84647.8
84553.3
84517.4
84540.1
84620.5
84760.7
84932.8
85211.3
85282.1
85785.8
88888
86701.3
85447.8
84550.3
83990.8
83622.7
83419.7
83350.1
83408.2
83599.3
83955.7
84499.3
85399.4
86591.7
88843.7
77024.2
78844.2
78891.6
79322.7
79579.7
79757.2
79865.8
79902
79874.2
79775.3
79612.5
79374.2
78967
78985.5
77043.5
70263
72916.1
73589.8
74659.3
75322.9
75817
76105.1
76197.4
76100.5
75807.3
75308.2
74643
73548.7
72916.2
70022.6
69387.6
71940.1
72620.9
73708.6
74339.3
74826.6
75095.4
75172.9
75057.7
74748.5
74213
73532.8
72352.5
71616.9
68810.7
75690.1
76644.2
76712.4
77145.3
77342.2
77535.9
77633.3
77659.4
77603.8
77476.4
77242.5
77022.1
76481.6
76504.5
75219.6
82017.3
81695.4
81520.5
81379.7
81248.8
81191.8
81155
81151.8
81170.2
81225
81291.8
81468.7
81552.6
82044.8
81916.2
90016.1
87483.2
86422.8
85421.5
84772
84355
84126.5
84071.2
84174.8
84456.7
84922.1
85657.2
86701.2
87961.5
90777.6
84609.6
84787.5
84856
84742.1
84653.6
84560.5
84505.8
84496.4
84532.9
84615.7
84730.8
84849.3
84982.5
84936.1
84773.4
84258.1
84307.3
84289.2
84287.2
84288.6
84283.3
84282.6
84283.6
84287.1
84291.6
84297
84293.8
84287.2
84296.8
84220.7
84662.9
84632.4
84582.1
84540.9
84502.6
84475.1
84459.6
84455.4
84463.2
84482.1
84512.2
84553.4
84596.1
84652.8
84686.2
84601
84602
84596.2
84588.5
84578.4
84570.2
84565.2
84564.7
84569.2
84578.2
84590.1
84604.2
84615.3
84624.8
84626
84549.3
84551
84550.4
84550.5
84550.2
84550.1
84550.2
84550.8
84551.7
84553.1
84554.3
84555.6
84555.8
84556.6
84554.7
84556.4
84556
84554.1
84552.5
84550.8
84549.6
84549
84549
84549.5
84550.6
84552
84553.9
84555.6
84557.5
84558
84561.4
84561.4
84560.9
84560.3
84559.5
84559
84558.7
84558.7
84559.1
84559.8
84560.6
84561.7
84562.5
84563.3
84563.4
84561
84561.2
84561.2
84561.2
84561.1
84561.1
84561.1
84561.2
84561.3
84561.5
84561.7
84561.9
84562
84562.1
84562.1
84561.5
84561.6
84561.6
84561.6
84561.6
84561.6
84561.6
84561.6
84561.6
84561.7
84561.8
84561.9
84561.9
84562
84561.9
84561.5
84562
84562.7
84563.2
84563.5
84563.4
84563.1
84562.9
84562.9
84563
84563.1
84563.1
84563
84562.7
84562.5
84562
84562.9
84564
84564.9
84565.1
84564.7
84564.2
84563.9
84564
84564.3
84564.6
84564.6
84564.2
84563.7
84563.3
SCALARS density float 1
LOOKUP_TABLE default
1.21953
1.21953
1.21953
1.21953
1.21953
1.21953
1.21953
1.21953
1.21953
1.21953
1.21953
1.21953
1.21953
1.21953
1.21953
1.21585
1.21585
1.21585
1.21585
1.21585
1.21585
1.21585
1.21585
1.21585
1.21585
1.21585
1.21585
1.21585
1.21585
1.21585
1.21651
1.21651
1.21651
1.21651
1.21651
1.21651
1.21651
1.21651
1.21651
1.21651
1.21651
1.21651
1.21651
1.21651
1.21651
1.21693
1.21693
1.21692
1.21692
1.21692
1.21691
1.21691
1.21691
1.21691
1.21691
1.21691
1.21691
1.21692
1.21692
1.21692
1.21678
1.21678
1.21678
1.21677
1.21677
1.21676
1.21675
1.21675
1.21675
1.21675
1.21676
1.21676
1.21676
1.21677
1.21677
1.21676
1.21675
1.21674
1.21672
1.21671
1.21669
1.21668
1.21668
1.21668
1.21668
1.21669
1.2167
1.21671
1.21672
1.21673
1.21693
1.21689
1.21685
1.2168
1.21675
1.2167
1.21668
1.21666
1.21666
1.21668
1.21671
1.21676
1.2168
1.21684
1.21687
1.21709
1.21699
1.21688
1.21674
1.21662
1.21651
1.21644
1.21641
1.21642
1.21647
1.21656
1.21667
1.21679
1.21689
1.21698
1.21798
1.21771
1.21742
1.21706
1.21672
1.21643
1.21624
1.21617
1.21621
1.21637
1.21662
1.21695
1.21728
1.21758
1.21786
1.21741
1.21675
1.21636
1.21576
1.21521
1.21474
1.21442
1.21429
1.21436
1.21462
1.21503
1.21554
1.2161
1.21648
1.21712
1.23188
1.22454
1.22135
1.21796
1.21567
1.21404
1.21305
1.2127
1.21297
1.21387
1.21543
1.21765
1.22097
1.22402
1.23131
1.21989
1.2138
1.21204
1.20847
1.20624
1.20451
1.20349
1.2031
1.20335
1.20423
1.2058
1.20782
1.21107
1.21233
1.21804
1.24242
1.22268
1.21144
1.2029
1.19735
1.19366
1.19163
1.19095
1.19153
1.19346
1.19703
1.20237
1.21095
1.22204
1.24377
1.11883
1.13999
1.14257
1.14819
1.15129
1.15326
1.15444
1.15484
1.15455
1.15345
1.15157
1.14862
1.14358
1.1431
1.12305
1.04959
1.07931
1.08781
1.1
1.10736
1.11261
1.11561
1.11658
1.11557
1.11248
1.10712
1.09982
1.08792
1.08102
1.04972
1.04097
1.06946
1.0779
1.09023
1.09731
1.10257
1.10542
1.10623
1.10502
1.10172
1.09591
1.08843
1.07565
1.06784
1.03814
1.10311
1.1161
1.11951
1.12544
1.12809
1.13034
1.13144
1.13173
1.13111
1.12962
1.12682
1.12396
1.11775
1.11789
1.10548
1.16372
1.16463
1.1674
1.1685
1.16809
1.16774
1.16743
1.16742
1.16754
1.16787
1.1681
1.16914
1.16894
1.17279
1.17098
1.24254
1.22165
1.21623
1.20959
1.20439
1.20045
1.19812
1.19752
1.1985
1.20114
1.20537
1.21188
1.22087
1.23143
1.25773
1.18961
1.19466
1.19996
1.20246
1.20331
1.2028
1.2022
1.20201
1.20228
1.2029
1.20355
1.20374
1.20346
1.20104
1.19796
1.18686
1.19003
1.19392
1.19751
1.19953
1.20009
1.20005
1.19992
1.19983
1.19963
1.19914
1.19803
1.19635
1.19472
1.19283
1.19136
1.19344
1.19668
1.19977
1.20156
1.20208
1.20195
1.20174
1.20165
1.20157
1.20127
1.20056
1.19941
1.19839
1.19771
1.19106
1.19325
1.19668
1.2
1.20218
1.20305
1.20311
1.20293
1.20276
1.20253
1.20199
1.20099
1.19956
1.19815
1.19723
1.19081
1.19285
1.19611
1.19941
1.20174
1.20282
1.20303
1.20287
1.20263
1.20226
1.20157
1.20042
1.19893
1.1975
1.19661
1.19112
1.193
1.19607
1.19925
1.20159
1.20278
1.20307
1.20293
1.20265
1.20222
1.20148
1.20033
1.1989
1.19755
1.19673
1.19138
1.19316
1.19608
1.19917
1.20154
1.20283
1.20321
1.2031
1.20279
1.2023
1.20151
1.20035
1.19894
1.19765
1.19686
1.19157
1.19325
1.19604
1.19905
1.20143
1.2028
1.20326
1.20319
1.20285
1.20231
1.20147
1.2003
1.19892
1.19767
1.19692
1.19174
1.19334
1.19601
1.19894
1.20132
1.20275
1.20329
1.20324
1.20289
1.2023
1.20143
1.20025
1.1989
1.1977
1.19699
1.1919
1.19342
1.196
1.19885
1.20123
1.20271
1.20331
1.2033
1.20293
1.20231
1.2014
1.20022
1.1989
1.19774
1.19705
1.19207
1.19352
1.19599
1.19877
1.20113
1.20265
1.20332
1.20335
1.20297
1.20232
1.20138
1.20019
1.1989
1.19778
1.19713
SCALARS u-velocity float 1
LOOKUP_TABLE default
146.752
146.752
146.752
146.752
146.752
146.753
146.753
146.753
146.753
146.753
146.753
146.754
146.754
146.754
146.754
147.591
147.591
147.591
147.591
147.592
147.592
147.592
147.593
147.593
147.593
147.593
147.593
147.593
147.593
147.593
147.406
147.406
147.407
147.408
147.408
147.409
147.409
147.41
147.41
147.41
147.41
147.41
147.41
147.41
147.41
147.297
147.297
147.298
147.299
147.3
147.302
147.303
147.304
147.304
147.304
147.304
147.304
147.303
147.303
147.302
147.329
147.331
147.333
147.337
147.34
147.344
147.346
147.348
147.348
147.348
147.346
147.344
147.342
147.341
147.34
147.321
147.327
147.335
147.344
147.352
147.36
147.366
147.37
147.37
147.367
147.362
147.356
147.35
147.344
147.339
147.284
147.297
147.315
147.336
147.357
147.377
147.392
147.399
147.398
147.389
147.375
147.359
147.343
147.326
147.313
147.177
147.187
147.229
147.29
147.353
147.405
147.441
147.457
147.452
147.428
147.387
147.333
147.275
147.232
147.22
146.989
147.079
147.209
147.371
147.526
147.646
147.722
147.754
147.742
147.684
147.578
147.434
147.282
147.173
147.104
145.436
146.16
146.653
147.129
147.57
147.925
148.15
148.235
148.178
147.975
147.637
147.214
146.771
146.328
145.642
145.392
146.488
147.272
148.037
148.766
149.404
149.838
150.006
149.891
149.513
148.942
148.301
147.607
146.799
145.57
134.239
139.456
144.638
148.102
150.311
151.796
152.712
153.05
152.796
151.985
150.637
148.566
145.127
139.767
134.17
136.694
143.311
151.206
156.421
159.305
160.834
161.638
161.912
161.683
160.938
159.451
156.533
151.296
143.941
139.198
182.022
180.798
180.812
181.201
181.113
180.591
180.098
179.909
180.085
180.531
180.92
180.833
180.685
182.196
186.322
215.696
211.311
206.289
202.716
200.281
198.383
197.101
196.668
197.18
198.499
200.397
202.976
207.266
213.776
219.572
215.334
213.052
208.732
204.93
202.464
200.834
199.826
199.521
200.002
201.155
202.939
205.768
210.545
216.625
221.151
180.493
186.772
188.908
188.568
187.894
187.535
187.388
187.361
187.438
187.553
187.811
188.593
190.124
191.205
190.525
130.025
146.57
158.42
164.358
166.875
168.256
169.105
169.359
168.892
167.668
165.803
163.257
159.025
151.413
140.283
115.951
129.054
142.678
151.133
154.93
156.611
157.468
157.68
157.093
155.695
153.512
150.092
143.968
134.595
124.453
132.479
137.175
145.394
151.68
154.566
155.383
155.511
155.438
155.132
154.546
153.541
151.593
148.002
143.654
141.603
135.574
139.622
146.244
151.888
154.849
155.648
155.561
155.346
155.158
154.879
154.165
152.472
149.601
146.461
144.828
135.45
139.318
145.253
150.657
153.866
154.944
154.918
154.651
154.442
154.142
153.323
151.531
148.817
146.02
144.27
136.182
139.67
145.046
150.121
153.364
154.616
154.672
154.388
154.145
153.811
152.959
151.232
148.762
146.283
144.714
136.797
140.015
145.032
149.892
153.171
154.592
154.772
154.509
154.223
153.82
152.915
151.221
148.891
146.582
145.128
137.175
140.175
144.913
149.613
152.933
154.514
154.834
154.614
154.279
153.784
152.804
151.106
148.859
146.665
145.296
137.502
140.314
144.805
149.357
152.696
154.411
154.862
154.69
154.313
153.73
152.679
150.979
148.804
146.716
145.426
137.808
140.457
144.733
149.148
152.496
154.324
154.897
154.777
154.365
153.702
152.587
150.883
148.771
146.778
145.556
138.081
140.59
144.677
148.968
152.315
154.24
154.923
154.855
154.418
153.683
152.507
150.798
148.741
146.831
145.671
138.326
140.712
144.631
148.808
152.149
154.154
154.936
154.918
154.461
153.664
152.435
150.72
148.712
146.877
145.771
138.578
140.843
144.593
148.65
151.977
154.057
154.938
154.976
154.505
153.649
152.365
150.644
148.685
146.924
145.872
SCALARS v-velocity float 1
LOOKUP_TABLE default
6.27582e-05
0.000180814
0.00026862
0.000329819
0.000363751
0.00037208
0.000356631
0.000321415
0.000272826
0.000218038
0.000162846
0.000110841
6.53546e-05
2.81131e-05
8.83994e-06
0.000125553
0.000381492
0.000576669
0.000721426
0.000803233
0.000822574
0.000782663
0.000694979
0.00057809
0.000450714
0.000325446
0.000209727
0.00011407
4.10446e-05
1.63206e-05
0.000192575
0.000669741
0.00107987
0.00142247
0.00161197
0.00164084
0.00153056
0.00131834
0.00104576
0.000754514
0.000486347
0.000279837
0.000159538
7.67171e-05
5.57586e-05
0.000598193
0.00191482
0.00288948
0.00357805
0.0038211
0.00364183
0.00312653
0.00238944
0.00154253
0.000708063
2.91567e-05
-0.000371982
-0.000451385
-0.000370955
-6.62211e-05
0.00195674
0.00568429
0.00782364
0.00899783
0.00912335
0.00826421
0.00654252
0.00425305
0.00179131
-0.000421863
-0.00204164
-0.00292945
-0.00307093
-0.0026121
-0.000889497
0.00363658
0.0115621
0.0164534
0.0193343
0.0197045
0.0176067
0.0132519
0.00742151
0.0012937
-0.00396677
-0.00762624
-0.0095155
-0.00946782
-0.00757668
-0.00238391
0.00453944
0.0218714
0.0361833
0.0451215
0.0457531
0.0393819
0.0276849
0.0128508
-0.00258767
-0.0161924
-0.0259262
-0.0299713
-0.0262742
-0.016667
-0.00296983
0.0254875
0.0833102
0.12032
0.13777
0.131185
0.105503
0.0675263
0.0231734
-0.0222384
-0.063286
-0.0935475
-0.105281
-0.0932134
-0.0635334
-0.0177646
0.116801
0.276195
0.354453
0.382017
0.357979
0.282284
0.170893
0.0408562
-0.0906526
-0.205817
-0.286058
-0.314633
-0.29437
-0.231855
-0.100274
0.226387
0.608169
0.741885
0.799566
0.747639
0.591949
0.353484
0.0687812
-0.218411
-0.464295
-0.633833
-0.710796
-0.69359
-0.604857
-0.238484
0.314318
2.34656
2.60713
2.57467
2.16499
1.58684
0.881857
0.106637
-0.673311
-1.39483
-2.00951
-2.48317
-2.60027
-2.40464
-0.346386
1.25212
4.96859
5.68964
5.57141
4.53613
3.22375
1.75211
0.21541
-1.32026
-2.79113
-4.10477
-5.13072
-5.18815
-4.39473
-0.823055
34.8992
28.458
22.7633
17.7467
12.9043
8.45995
4.31657
0.354923
-3.6003
-7.72153
-12.1108
-16.845
-21.6587
-27.529
-34.6502
39.7204
28.5173
23.2906
17.7942
13.049
8.59993
4.37469
0.300063
-3.78047
-8.01871
-12.4663
-17.2097
-22.8097
-28.3653
-40.7272
19.2419
12.0494
10.387
7.53805
5.66152
3.80988
2.02192
0.259317
-1.51375
-3.33239
-5.23286
-7.19694
-10.3042
-12.0964
-20.029
-12.6615
-12.0588
-7.78134
-6.13787
-4.06072
-2.39733
-0.879426
0.515587
1.92021
3.47211
5.19919
7.41243
9.15807
13.6943
13.6823
-33.3986
-26.4842
-19.1734
-14.5335
-10.1178
-6.28477
-2.66423
0.785832
4.26162
7.97633
11.9792
16.7478
21.6187
29.7235
35.973
-33.9124
-25.926
-19.7871
-14.8895
-10.5994
-6.71664
-2.95211
0.718522
4.41022
8.25811
12.2677
16.8214
21.6715
28.7713
35.8529
-4.1454
-3.67979
-4.48701
-3.95071
-3.29667
-2.32973
-1.05801
0.373029
1.81008
3.11059
4.06565
4.68618
4.84277
3.84649
4.21283
-0.56012
-1.74659
-1.83984
-1.27843
-0.967901
-0.677926
-0.321247
0.136372
0.604637
0.986855
1.23936
1.40858
1.66718
1.3534
0.34386
-0.40388
-1.29988
-1.33898
-0.991148
-0.659014
-0.417097
-0.197714
0.0774775
0.371903
0.628776
0.856341
1.07758
1.25162
1.14174
0.332784
-0.161258
-0.509667
-0.565989
-0.401335
-0.198787
-0.0873066
-0.0260095
0.0524075
0.148971
0.239705
0.332338
0.438602
0.4749
0.37624
0.101826
-0.116443
-0.307361
-0.322835
-0.188677
-0.0299086
0.0448174
0.0454673
0.0271414
0.0217184
0.0383479
0.0855543
0.159063
0.197666
0.160428
0.0514452
-0.104857
-0.257043
-0.266282
-0.156925
-0.0213695
0.0520375
0.0516819
0.0173374
-0.00908768
-0.00362044
0.0398075
0.10414
0.143239
0.125966
0.0484301
-0.0872285
-0.211307
-0.218991
-0.128591
-0.0131514
0.0544674
0.0546884
0.0160295
-0.0190806
-0.021393
0.0144503
0.0687176
0.104273
0.0953636
0.0382318
-0.0754981
-0.183232
-0.191739
-0.114272
-0.01239
0.0509347
0.0532388
0.0155493
-0.0222078
-0.029243
0.000596556
0.0485167
0.0821762
0.0775348
0.0315815
-0.0673724
-0.164727
-0.175899
-0.109934
-0.0190311
0.0412917
0.0476186
0.0153698
-0.0196552
-0.0275858
-0.00154586
0.0413954
0.0721486
0.0684324
0.0279664
-0.0603994
-0.148859
-0.162199
-0.106321
-0.0253708
0.0316535
0.0416052
0.0155693
-0.0152467
-0.0230686
-0.000529223
0.0374373
0.0647474
0.0611855
0.0249851
-0.0575136
-0.14283
-0.158544
-0.10843
-0.0320095
0.0249317
0.0386993
0.0173116
-0.0108618
-0.0189487
0.00125243
0.0363168
0.0616647
0.0579822
0.0236439
-0.0581484
-0.145081
-0.162807
-0.114015
-0.0371752
0.0219102
0.0384157
0.019049
-0.00840895
-0.016755
0.00290897
0.0375495
0.0625806
0.0585441
0.0238342
SCALARS Mach float 1
LOOKUP_TABLE default
68.4869
68.487
68.4871
68.4873
68.4875
68.4878
68.488
68.4882
68.4884
68.4886
68.4887
68.4887
68.4888
68.4888
68.4888
69.3031
69.3033
69.3035
69.3039
69.3042
69.3045
69.3049
69.3051
69.3053
69.3055
69.3056
69.3056
69.3056
69.3055
69.3055
69.1207
69.121
69.1215
69.122
69.1227
69.1233
69.1239
69.1244
69.1247
69.1248
69.1248
69.1247
69.1246
69.1244
69.1243
69.0131
69.0135
69.0142
69.0154
69.0167
69.0181
69.0192
69.02
69.0204
69.0205
69.0203
69.0198
69.0193
69.0189
69.0187
69.0452
69.0467
69.0491
69.0523
69.0558
69.059
69.0614
69.0629
69.0635
69.063
69.0615
69.0595
69.0575
69.0561
69.0552
69.0369
69.0432
69.0511
69.0594
69.0677
69.0753
69.0812
69.0844
69.0845
69.0818
69.077
69.0713
69.0655
69.0599
69.055
69.0023
69.0144
69.0315
69.0512
69.0715
69.0904
69.1049
69.112
69.1108
69.1022
69.0891
69.0739
69.0578
69.0419
69.0294
68.9021
68.9119
68.9514
69.0098
69.0697
69.1194
69.1539
69.1695
69.1648
69.1414
69.1023
69.0506
68.9958
68.9552
68.9434
68.7071
68.7969
68.9237
69.0817
69.2313
69.3467
69.4204
69.4513
69.4392
69.3827
69.2809
69.1411
68.9944
68.8868
68.8171
67.2586
67.941
68.4099
68.8662
69.2876
69.6268
69.8427
69.924
69.8695
69.6753
69.3519
68.9477
68.5241
68.1031
67.4555
67.1223
68.2198
68.9741
69.7224
70.4274
71.0449
71.4637
71.625
71.514
71.1477
70.5949
69.9728
69.2914
68.5118
67.2839
57.3872
62.0457
66.7524
69.9995
72.0813
73.4941
74.3695
74.6929
74.449
73.672
72.3872
70.4301
67.1924
62.31
57.3304
62.8887
67.7537
74.4063
79.0015
81.5134
82.8267
83.5157
83.7505
83.5467
82.8995
81.6048
79.0212
74.3425
68.1887
65.068
111.804
107.662
106.897
106.594
105.992
105.049
104.284
103.998
104.252
104.946
105.711
106.085
106.674
109.316
117.372
153.183
145.664
138.63
133.496
130.089
127.466
125.721
125.135
125.817
127.604
130.224
133.825
139.983
149.193
159.076
152.313
148.386
142.061
136.627
133.156
130.873
129.481
129.065
129.727
131.329
133.845
137.853
144.728
153.755
161.165
108.709
114.768
116.404
115.465
114.284
113.616
113.319
113.261
113.42
113.724
114.325
115.735
118.299
120.965
121.805
57.4839
70.6971
81.518
87.2218
89.5978
90.884
91.6941
91.9445
91.4925
90.3116
88.5541
86.2391
82.421
75.9015
66.9913
42.2704
52.6433
64.6064
72.6916
76.4999
78.2155
79.0899
79.3062
78.7113
77.2924
75.0892
71.6841
65.8084
57.3331
48.7807
55.6204
59.7053
67.1956
73.2504
76.1286
76.9598
77.0913
77.0172
76.7072
76.1132
75.0978
73.1597
69.6752
65.591
63.7049
58.3025
61.9051
68.0352
73.4953
76.4502
77.2608
77.1734
76.9555
76.7649
76.4818
75.7615
74.0753
71.2661
68.2545
66.7153
58.1656
61.601
67.0717
72.2656
75.4504
76.5397
76.5177
76.2491
76.0366
75.7308
74.9053
73.1255
70.478
67.8016
66.1546
58.8101
61.9187
66.8748
71.7394
74.9445
76.2043
76.2639
75.9778
75.7315
75.3925
74.5376
72.8279
70.4219
68.0506
66.5724
59.3547
62.2326
66.8641
71.5181
74.7542
76.1821
76.366
76.1017
75.8117
75.404
74.4977
72.8206
70.5504
68.3376
66.9646
59.6882
62.3775
66.752
71.2469
74.5171
76.1045
76.4296
76.2075
75.8684
75.3686
74.3876
72.7085
70.5185
68.416
67.1217
59.9783
62.5028
66.6503
70.9974
74.2814
76
76.4572
76.2839
75.9019
75.314
74.2639
72.5836
70.4653
68.4645
67.2434
60.2502
62.633
66.5824
70.7954
74.0826
75.9125
76.4921
76.3709
75.9546
75.2863
74.1718
72.489
70.4335
68.523
67.3665
60.4935
62.7538
66.5294
70.6205
73.9037
75.8281
76.5188
76.4502
76.0073
75.2672
74.0932
72.4058
70.4049
68.5742
67.4745
60.7121
62.8652
66.4868
70.4659
73.7383
75.7412
76.5308
76.5134
76.051
75.2488
74.0215
72.3296
70.3771
68.6175
67.5684
60.9376
62.9843
66.4514
70.3138
73.5682
75.644
76.5327
76.5712
76.0947
75.2331
73.9527
72.2554
70.351
68.6627
67.6645
