# vtk DataFile Version 3.0
Structured Grid Example
ASCII
DATASET STRUCTURED_GRID
DIMENSIONS 15 30 1
POINTS 450 FLOAT
0.0833327 0.0333334 0
0.0833313 0.1 0
0.0833301 0.166667 0
0.083329 0.233333 0
0.0833281 0.3 0
0.0833274 0.366667 0
0.083327 0.433333 0
0.0833268 0.5 0
0.083327 0.566667 0
0.0833274 0.633333 0
0.0833281 0.7 0
0.083329 0.766667 0
0.0833301 0.833333 0
0.0833313 0.9 0
0.0833327 0.966667 0
0.249998 0.0333334 0
0.249993 0.1 0
0.249989 0.166667 0
0.249986 0.233334 0
0.249983 0.3 0
0.24998 0.366667 0
0.249979 0.433333 0
0.249979 0.5 0
0.249979 0.566667 0
0.24998 0.633333 0
0.249983 0.7 0
0.249986 0.766666 0
0.249989 0.833333 0
0.249993 0.9 0
0.249998 0.966667 0
0.416662 0.0333336 0
0.416654 0.100001 0
0.416646 0.166668 0
0.416639 0.233334 0
0.416633 0.300001 0
0.416628 0.366667 0
0.416626 0.433334 0
0.416625 0.5 0
0.416626 0.566666 0
0.416628 0.633333 0
0.416633 0.699999 0
0.416639 0.766666 0
0.416646 0.833332 0
0.416654 0.899999 0
0.416662 0.966666 0
0.583326 0.033334 0
0.58331 0.100002 0
0.583296 0.166669 0
0.583284 0.233336 0
0.583273 0.300003 0
0.583266 0.366669 0
0.583261 0.433335 0
0.583259 0.5 0
0.583261 0.566665 0
0.583266 0.633331 0
0.583273 0.699997 0
0.583284 0.766664 0
0.583296 0.833331 0
0.58331 0.899998 0
0.583326 0.966666 0
0.749987 0.0333351 0
0.749961 0.100005 0
0.749937 0.166674 0
0.749915 0.233342 0
0.749898 0.300008 0
0.749884 0.366673 0
0.749876 0.433337 0
0.749874 0.5 0
0.749876 0.566663 0
0.749884 0.633327 0
0.749898 0.699992 0
0.749915 0.766658 0
0.749937 0.833326 0
0.749961 0.899995 0
0.749987 0.966665 0
0.916644 0.033338 0
0.916601 0.100013 0
0.91656 0.166686 0
0.916524 0.233356 0
0.916494 0.300021 0
0.916472 0.366683 0
0.916458 0.433342 0
0.916454 0.5 0
0.916458 0.566658 0
0.916472 0.633317 0
0.916494 0.699979 0
0.916524 0.766644 0
0.91656 0.833314 0
0.916601 0.899987 0
0.916644 0.966662 0
1.0833 0.0333461 0
1.08322 0.100036 0
1.08315 0.166719 0
1.08309 0.233394 0
1.08304 0.300058 0
1.08301 0.366712 0
1.08298 0.433358 0
1.08298 0.5 0
1.08298 0.566642 0
1.08301 0.633288 0
1.08304 0.699942 0
1.08309 0.766606 0
1.08315 0.833281 0
1.08322 0.899964 0
1.0833 0.966654 0
1.24994 0.0333682 0
1.24981 0.100098 0
1.2497 0.16681 0
1.24959 0.233497 0
1.24951 0.300156 0
1.24945 0.366788 0
1.24942 0.433399 0
1.2494 0.5 0
1.24942 0.566601 0
1.24945 0.633212 0
1.24951 0.699844 0
1.24959 0.766503 0
1.2497 0.83319 0
1.24981 0.899902 0
1.24994 0.966632 0
1.41656 0.0334298 0
1.41634 0.10027 0
1.41615 0.16706 0
1.41598 0.233778 0
1.41585 0.300419 0
1.41575 0.36699 0
1.41569 0.433509 0
1.41567 0.5 0
1.41569 0.566491 0
1.41575 0.63301 0
1.41585 0.699581 0
1.41598 0.766222 0
1.41615 0.83294 0
1.41634 0.89973 0
1.41656 0.96657 0
1.58313 0.0336075 0
1.58275 0.10076 0
1.58242 0.167751 0
1.58215 0.234537 0
1.58195 0.301115 0
1.58181 0.367517 0
1.58173 0.433791 0
1.58171 0.5 0
1.58173 0.566209 0
1.58181 0.632483 0
1.58195 0.698885 0
1.58215 0.765463 0
1.58242 0.832249 0
1.58275 0.89924 0
1.58313 0.966392 0
1.74959 0.0341677 0
1.74885 0.102235 0
1.74829 0.169714 0
1.74791 0.236575 0
1.74766 0.302905 0
1.74751 0.368829 0
1.74744 0.434482 0
1.74741 0.5 0
1.74744 0.565518 0
1.74751 0.631171 0
1.74766 0.697095 0
1.74791 0.763425 0
1.74829 0.830286 0
1.74885 0.897765 0
1.74959 0.965832 0
1.91555 0.0363295 0
1.91388 0.107253 0
1.91312 0.175401 0
1.91283 0.241837 0
1.91276 0.307169 0
1.91277 0.371793 0
1.9128 0.435995 0
1.91281 0.5 0
1.9128 0.564005 0
1.91277 0.628207 0
1.91276 0.692831 0
1.91283 0.758163 0
1.91312 0.824599 0
1.91388 0.892747 0
1.91555 0.963671 0
2.07838 0.0591504 0
2.07417 0.125973 0
2.07554 0.190391 0
2.07663 0.253364 0
2.07743 0.315525 0
2.07798 0.377223 0
2.07829 0.438667 0
2.0784 0.5 0
2.07829 0.561333 0
2.07798 0.622777 0
2.07743 0.684475 0
2.07663 0.746636 0
2.07554 0.809609 0
2.07417 0.874027 0
2.07838 0.94085 0
2.24384 0.096456 0
2.23911 0.153168 0
2.24152 0.210396 0
2.24318 0.267878 0
2.24431 0.325632 0
2.24503 0.383617 0
2.24544 0.441767 0
2.24557 0.5 0
2.24544 0.558233 0
2.24503 0.616383 0
2.24431 0.674368 0
2.24318 0.732122 0
2.24152 0.789604 0
2.23911 0.846832 0
2.24384 0.903544 0
2.41462 0.118677 0
2.41292 0.170231 0
2.41356 0.223198 0
2.41406 0.277268 0
2.41444 0.332207 0
2.4147 0.387788 0
2.41485 0.44379 0
2.4149 0.5 0
2.41485 0.55621 0
2.4147 0.612212 0
2.41444 0.667793 0
2.41406 0.722732 0
2.41356 0.776802 0
2.41292 0.829769 0
2.41462 0.881323 0
2.58538 0.118677 0
2.58708 0.170231 0
2.58644 0.223198 0
2.58594 0.277268 0
2.58556 0.332207 0
2.5853 0.387788 0
2.58515 0.44379 0
2.5851 0.5 0
2.58515 0.55621 0
2.5853 0.612212 0
2.58556 0.667793 0
2.58594 0.722732 0
2.58644 0.776802 0
2.58708 0.829769 0
2.58538 0.881323 0
2.75616 0.096456 0
2.76089 0.153168 0
2.75848 0.210396 0
2.75682 0.267878 0
2.75569 0.325632 0
2.75497 0.383617 0
2.75456 0.441767 0
2.75443 0.5 0
2.75456 0.558233 0
2.75497 0.616383 0
2.75569 0.674368 0
2.75682 0.732122 0
2.75848 0.789604 0
2.76089 0.846832 0
2.75616 0.903544 0
2.92162 0.0591504 0
2.92583 0.125973 0
2.92446 0.190391 0
2.92337 0.253364 0
2.92257 0.315525 0
2.92202 0.377223 0
2.92171 0.438667 0
2.9216 0.5 0
2.92171 0.561333 0
2.92202 0.622777 0
2.92257 0.684475 0
2.92337 0.746636 0
2.92446 0.809609 0
2.92583 0.874027 0
2.92162 0.94085 0
3.08445 0.0363295 0
3.08612 0.107253 0
3.08688 0.175401 0
3.08717 0.241837 0
3.08724 0.307169 0
3.08723 0.371793 0
3.0872 0.435995 0
3.08719 0.5 0
3.0872 0.564005 0
3.08723 0.628207 0
3.08724 0.692831 0
3.08717 0.758163 0
3.08688 0.824599 0
3.08612 0.892747 0
3.08445 0.963671 0
3.25041 0.0341677 0
3.25115 0.102235 0
3.25171 0.169714 0
3.25209 0.236575 0
3.25234 0.302905 0
3.25249 0.368829 0
3.25256 0.434482 0
3.25259 0.5 0
3.25256 0.565518 0
3.25249 0.631171 0
3.25234 0.697095 0
3.25209 0.763425 0
3.25171 0.830286 0
3.25115 0.897765 0
3.25041 0.965832 0
3.41687 0.0336075 0
3.41725 0.10076 0
3.41758 0.167751 0
3.41785 0.234537 0
3.41805 0.301115 0
3.41819 0.367517 0
3.41827 0.433791 0
3.41829 0.5 0
3.41827 0.566209 0
3.41819 0.632483 0
3.41805 0.698885 0
3.41785 0.765463 0
3.41758 0.832249 0
3.41725 0.89924 0
3.41687 0.966392 0
3.58344 0.0334298 0
3.58366 0.10027 0
3.58385 0.16706 0
3.58402 0.233778 0
3.58415 0.300419 0
3.58425 0.36699 0
3.58431 0.433509 0
3.58433 0.5 0
3.58431 0.566491 0
3.58425 0.63301 0
3.58415 0.699581 0
3.58402 0.766222 0
3.58385 0.83294 0
3.58366 0.89973 0
3.58344 0.96657 0
3.75006 0.0333682 0
3.75019 0.100098 0
3.7503 0.16681 0
3.75041 0.233497 0
3.75049 0.300156 0
3.75055 0.366788 0
3.75058 0.433399 0
3.7506 0.5 0
3.75058 0.566601 0
3.75055 0.633212 0
3.75049 0.699844 0
3.75041 0.766503 0
3.7503 0.83319 0
3.75019 0.899902 0
3.75006 0.966632 0
3.9167 0.0333461 0
3.91678 0.100036 0
3.91685 0.166719 0
3.91691 0.233394 0
3.91696 0.300058 0
3.91699 0.366712 0
3.91702 0.433358 0
3.91702 0.5 0
3.91702 0.566642 0
3.91699 0.633288 0
3.91696 0.699942 0
3.91691 0.766606 0
3.91685 0.833281 0
3.91678 0.899964 0
3.9167 0.966654 0
4.08336 0.033338 0
4.0834 0.100013 0
4.08344 0.166686 0
4.08348 0.233356 0
4.08351 0.300021 0
4.08353 0.366683 0
4.08354 0.433342 0
4.08355 0.5 0
4.08354 0.566658 0
4.08353 0.633317 0
4.08351 0.699979 0
4.08348 0.766644 0
4.08344 0.833314 0
4.0834 0.899987 0
4.08336 0.966662 0
4.25001 0.0333351 0
4.25004 0.100005 0
4.25006 0.166674 0
4.25008 0.233342 0
4.2501 0.300008 0
4.25012 0.366673 0
4.25012 0.433337 0
4.25013 0.5 0
4.25012 0.566663 0
4.25012 0.633327 0
4.2501 0.699992 0
4.25008 0.766658 0
4.25006 0.833326 0
4.25004 0.899995 0
4.25001 0.966665 0
4.41667 0.033334 0
4.41669 0.100002 0
4.4167 0.166669 0
4.41672 0.233336 0
4.41673 0.300003 0
4.41673 0.366669 0
4.41674 0.433335 0
4.41674 0.5 0
4.41674 0.566665 0
4.41673 0.633331 0
4.41673 0.699997 0
4.41672 0.766664 0
4.4167 0.833331 0
4.41669 0.899998 0
4.41667 0.966666 0
4.58334 0.0333336 0
4.58335 0.100001 0
4.58335 0.166668 0
4.58336 0.233334 0
4.58337 0.300001 0
4.58337 0.366667 0
4.58337 0.433334 0
4.58338 0.5 0
4.58337 0.566666 0
4.58337 0.633333 0
4.58337 0.699999 0
4.58336 0.766666 0
4.58335 0.833332 0
4.58335 0.899999 0
4.58334 0.966666 0
4.75 0.0333334 0
4.75001 0.1 0
4.75001 0.166667 0
4.75001 0.233334 0
4.75002 0.3 0
4.75002 0.366667 0
4.75002 0.433333 0
4.75002 0.5 0
4.75002 0.566667 0
4.75002 0.633333 0
4.75002 0.7 0
4.75001 0.766666 0
4.75001 0.833333 0
4.75001 0.9 0
4.75 0.966667 0
4.91667 0.0333334 0
4.91667 0.1 0
4.91667 0.166667 0
4.91667 0.233333 0
4.91667 0.3 0
4.91667 0.366667 0
4.91667 0.433333 0
4.91667 0.5 0
4.91667 0.566667 0
4.91667 0.633333 0
4.91667 0.7 0
4.91667 0.766667 0
4.91667 0.833333 0
4.91667 0.9 0
4.91667 0.966667 0
POINT_DATA 450
SCALARS pressure float 1
LOOKUP_TABLE default
94460.5
94460.5
94460.5
94460.5
94460.4
94460.5
94460.4
94460.5
94460.4
94460.5
94460.4
94460.5
94460.4
94460.5
94460.4
94103.5
94103.4
94103.4
94103.2
94103.3
94103.1
94103.2
94103
94103.2
94103
94103.2
94103.1
94103.3
94103.3
94103.3
94534.7
94534.7
94534.7
94534.8
94534.7
94534.8
94534.7
94534.8
94534.7
94534.8
94534.7
94534.7
94534.7
94534.7
94534.7
94020.6
94020.3
94020.4
94019.7
94020.1
94019.2
94019.8
94019
94019.7
94019.1
94019.9
94019.5
94020.2
94020
94020.3
94627.1
94627.1
94627
94627
94626.8
94626.8
94626.6
94626.7
94626.6
94626.7
94626.7
94626.9
94626.9
94627
94627
93919.3
93917.8
93918.2
93915
93916
93912.2
93914.2
93911.1
93914.1
93912
93915.6
93914.4
93917.6
93917.2
93918.6
94746.2
94745.4
94744.8
94743.3
94742.3
94740.9
94740.6
94739.9
94740.5
94740.8
94742.2
94743
94744.5
94745.1
94745.8
93805.3
93796.5
93796.5
93780.2
93781.9
93765.7
93771.5
93759.7
93771.1
93764.9
93780.7
93778.8
93794.8
93794.7
93803.3
94917.2
94907.5
94902.6
94888.6
94883.3
94871.5
94870.6
94864.6
94870.4
94870.9
94882.8
94887.5
94901.8
94906.3
94916.2
93762.6
93691.4
93684.9
93595.8
93591.1
93522.9
93534.4
93496
93533.3
93521.1
93588
93592.3
93680.2
93686.5
93757.2
95297.8
95173
95137.2
95040.6
95009.7
94948.3
94942.5
94915.5
94942.1
94946.3
95008.6
95036.9
95135.5
95168.3
95295.2
94515.8
93697.4
93645.3
93187.8
93129
92910.2
92901
92822.9
92898.7
92906.9
93121.8
93180.4
93632.9
93684.1
94498.1
96134.7
95536.8
95116
94851.3
94708.9
94591.4
94552.1
94519.1
94551.6
94585.8
94707.9
94838.4
95116
95512.2
96136
88796.6
89872.3
89460.9
90170.4
89936.9
90392.9
90173.1
90472.1
90172.8
90397.9
89936.1
90183
89459.8
89898.6
88789.5
90401.3
91720.9
91620.2
92451.4
92290
92819.7
92586.9
92932.3
92583.3
92822.5
92278.9
92458.1
91601
91733.2
90366.9
86796.7
88334.8
88070.9
89110.1
88830.4
89534.1
89183.2
89668
89176.6
89531.2
88809.4
89101.4
88032.3
88312
86725.9
91893.3
92693.9
92456.4
93043.6
92807.6
93247.7
92972.1
93314.6
92966
93250.9
92787.7
93049.1
92418
92697
91827.3
93016
92433.7
92310.4
92092
91966.5
91949.8
91829.7
91915.2
91827.3
91966.7
91958.8
92130
92294.6
92504.9
93013.5
96931
95926.4
95759.5
95293.6
95158.1
94969.8
94901.1
94873.4
94907.4
94981.7
95178.8
95317.4
95800.6
95961.4
97024.2
92724.9
92773.7
92743.8
92764.2
92731.2
92751
92716.9
92745.7
92715.7
92752.3
92727.6
92765.2
92737.4
92771.2
92717.5
95317.9
95228.1
95188.5
95087
95051.2
94985.7
94974.2
94951.5
94976.8
94990.3
95058.8
95095.2
95200
95238.7
95332.1
93204.8
93209.1
93207.5
93212.2
93208.7
93214
93208.7
93214.4
93208.3
93213.8
93207.7
93211.6
93206
93208
93203.5
94765
94756.5
94749.2
94732.8
94725.7
94711.7
94710.3
94704
94711
94713
94727.6
94734.9
94751.8
94758.9
94767.5
93531.5
93531.9
93532.2
93532.6
93532.6
93533.1
93532.8
93533.3
93532.8
93533.2
93532.6
93532.7
93532.2
93532.1
93531.9
94489.6
94488.4
94487.1
94484.3
94483.2
94480.5
94480.4
94479
94480.5
94480.7
94483.4
94484.6
94487.4
94488.6
94489.7
93729.5
93729.6
93729.9
93730
93730.3
93730.3
93730.5
93730.4
93730.5
93730.4
93730.5
93730.3
93730.3
93730.2
93730.2
94339.7
94339.5
94339.1
94338.5
94338.3
94337.7
94337.8
94337.4
94337.7
94337.7
94338.3
94338.4
94339
94339.2
94339.4
93836.8
93836.9
93837.1
93837.2
93837.4
93837.5
93837.7
93837.7
93837.8
93837.7
93837.7
93837.6
93837.6
93837.5
93837.4
94265.7
94265.7
94265.6
94265.4
94265.3
94265.2
94265.2
94265.1
94265.1
94265.1
94265.3
94265.3
94265.4
94265.5
94265.5
93883.3
93883.6
93884
93884.3
93884.6
93884.8
93885
93885.1
93885.2
93885.1
93885
93884.9
93884.7
93884.5
93884.3
SCALARS density float 1
LOOKUP_TABLE default
1.21537
1.21537
1.21537
1.21537
1.21537
1.21538
1.21538
1.21538
1.21538
1.21538
1.21537
1.21537
1.21537
1.21537
1.21537
1.21208
1.21208
1.21208
1.21208
1.21208
1.21208
1.21208
1.21208
1.21208
1.21208
1.21208
1.21208
1.21208
1.21208
1.21208
1.21604
1.21604
1.21604
1.21604
1.21605
1.21605
1.21605
1.21605
1.21605
1.21605
1.21605
1.21605
1.21604
1.21604
1.21604
1.21132
1.21132
1.21132
1.21132
1.21133
1.21132
1.21133
1.21132
1.21133
1.21132
1.21133
1.21132
1.21132
1.21132
1.21132
1.21688
1.21688
1.21688
1.21689
1.21689
1.21689
1.21689
1.21689
1.21689
1.21689
1.21689
1.21689
1.21688
1.21688
1.21688
1.21042
1.21041
1.21042
1.21039
1.2104
1.21037
1.21039
1.21036
1.21039
1.21037
1.2104
1.21038
1.21041
1.21041
1.21042
1.21792
1.21792
1.21792
1.21792
1.21792
1.21791
1.21791
1.2179
1.21791
1.21791
1.21792
1.21792
1.21792
1.21792
1.21792
1.2095
1.20942
1.20941
1.20926
1.20927
1.20913
1.20918
1.20908
1.20918
1.20912
1.20926
1.20925
1.2094
1.20941
1.20949
1.21923
1.21917
1.21918
1.2191
1.21907
1.21898
1.21897
1.21892
1.21897
1.21897
1.21907
1.21909
1.21917
1.21916
1.21922
1.20964
1.20898
1.20883
1.20795
1.20787
1.20722
1.20732
1.20696
1.20731
1.20721
1.20784
1.20791
1.20879
1.20894
1.20961
1.22145
1.2206
1.22059
1.21994
1.21978
1.21929
1.21927
1.21904
1.21927
1.21928
1.21978
1.21991
1.22057
1.22055
1.22142
1.21968
1.21104
1.20995
1.20521
1.20442
1.20219
1.20204
1.20125
1.20201
1.20215
1.20434
1.20512
1.20982
1.21093
1.21956
1.22637
1.22209
1.21912
1.21743
1.21643
1.21558
1.21529
1.21505
1.21529
1.21553
1.21643
1.21734
1.21914
1.22182
1.22632
1.16213
1.17272
1.16845
1.17525
1.17307
1.17744
1.17538
1.17821
1.17538
1.17749
1.17307
1.17537
1.16843
1.1731
1.16272
1.17869
1.19139
1.1898
1.19741
1.19573
1.20063
1.19839
1.20161
1.19836
1.20066
1.19563
1.19747
1.18962
1.1917
1.17888
1.14228
1.15735
1.15475
1.16453
1.16193
1.16861
1.16535
1.16991
1.16529
1.16858
1.16172
1.16443
1.15441
1.15738
1.14215
1.19115
1.19907
1.19712
1.2025
1.20044
1.20445
1.202
1.20508
1.20194
1.20448
1.20025
1.20253
1.19678
1.19932
1.19139
1.2008
1.19614
1.19517
1.19288
1.19172
1.19148
1.19045
1.19116
1.19043
1.19164
1.19165
1.1932
1.19505
1.19722
1.20207
1.2342
1.22709
1.22645
1.22244
1.22127
1.21964
1.21909
1.21884
1.21915
1.21975
1.22144
1.22258
1.22685
1.22788
1.23626
1.19718
1.19836
1.19875
1.19911
1.19882
1.19903
1.19876
1.19903
1.19876
1.19903
1.19875
1.19905
1.19876
1.19885
1.19816
1.22106
1.22088
1.22119
1.22051
1.22021
1.21965
1.21959
1.2194
1.21962
1.21968
1.22024
1.22051
1.22139
1.22152
1.22222
1.20183
1.2024
1.20298
1.20329
1.2033
1.20336
1.20334
1.20341
1.20334
1.20334
1.20324
1.20322
1.20309
1.20295
1.20279
1.2162
1.21662
1.21713
1.21727
1.21727
1.21715
1.21716
1.21712
1.21717
1.21714
1.21722
1.21724
1.2173
1.21721
1.21718
1.20496
1.2054
1.20594
1.20626
1.20634
1.20636
1.20637
1.20639
1.20637
1.20633
1.20628
1.20622
1.20612
1.20598
1.20587
1.21374
1.21415
1.21466
1.21495
1.21504
1.21502
1.21503
1.21503
1.21503
1.21499
1.21497
1.21492
1.21485
1.21473
1.21464
1.2069
1.20728
1.20779
1.20813
1.20825
1.20826
1.20827
1.20827
1.20826
1.20822
1.20818
1.20811
1.208
1.20787
1.20778
1.2123
1.21266
1.21313
1.21346
1.21358
1.21359
1.21359
1.21359
1.21358
1.21355
1.21351
1.21344
1.21335
1.21323
1.21314
1.20822
1.20857
1.20904
1.20939
1.20954
1.20957
1.20957
1.20957
1.20955
1.20952
1.20947
1.20939
1.20928
1.20916
1.20907
1.21102
1.21134
1.21178
1.21211
1.21226
1.21229
1.21229
1.21228
1.21227
1.21224
1.21219
1.21212
1.21202
1.21191
1.21183
1.21001
1.21032
1.21075
1.2111
1.21127
1.2113
1.2113
1.21129
1.21128
1.21125
1.2112
1.21112
1.21101
1.2109
1.21082
SCALARS u-velocity float 1
LOOKUP_TABLE default
100.598
100.599
100.602
100.605
100.607
100.61
100.611
100.612
100.611
100.611
100.608
100.606
100.603
100.601
100.599
99.524
99.5232
99.522
99.5208
99.5201
99.5194
99.5194
99.5192
99.5195
99.5197
99.5205
99.5212
99.5226
99.5238
99.5247
100.728
100.732
100.738
100.747
100.752
100.757
100.759
100.761
100.759
100.758
100.753
100.749
100.741
100.735
100.731
99.3734
99.3667
99.3574
99.3478
99.3414
99.3364
99.3345
99.3332
99.3346
99.3365
99.3415
99.3479
99.3575
99.3666
99.3733
100.882
100.901
100.924
100.952
100.968
100.987
100.99
100.999
100.991
100.989
100.971
100.956
100.929
100.907
100.889
99.2022
99.1717
99.1328
99.0975
99.0755
99.061
99.0552
99.0526
99.0553
99.0613
99.0757
99.0977
99.1325
99.1708
99.2005
100.97
101.054
101.14
101.246
101.298
101.363
101.373
101.4
101.376
101.368
101.305
101.255
101.151
101.068
100.986
99.0582
98.9357
98.817
98.7314
98.6883
98.6757
98.6713
98.6777
98.6723
98.678
98.6902
98.7347
98.8185
98.9351
99.0531
100.612
101.03
101.307
101.692
101.861
102.076
102.114
102.19
102.119
102.085
101.877
101.711
101.331
101.062
100.656
98.6012
98.2767
98.196
98.2078
98.2688
98.4395
98.5088
98.5927
98.5139
98.4516
98.2795
98.2272
98.2116
98.2913
98.585
98.3089
100.457
101.087
102.533
103.117
103.709
103.918
104.055
103.926
103.724
103.149
102.569
101.135
100.509
98.4375
90.9235
95.6296
97.0428
98.6921
99.6427
100.805
101.201
101.532
101.215
100.841
99.6796
98.7544
97.1029
95.7774
90.8786
90.3259
94.8062
102.798
105.195
107.839
108.259
109.368
109.065
109.383
108.29
107.893
105.288
102.93
94.8823
90.5533
125.589
121.747
122.209
120.696
121.033
119.508
119.94
119.035
119.941
119.482
121.042
120.627
122.167
121.783
126.731
135.758
131.368
128.293
125.68
124.673
122.898
122.729
121.935
122.745
122.914
124.718
125.679
128.352
131.787
136.884
139.128
135.146
132.01
129.412
128.311
126.757
126.478
125.831
126.508
126.808
128.4
129.5
132.24
135.754
140.248
118.537
120.884
118.671
119.113
118.046
118.223
117.451
117.742
117.473
118.225
118.098
119.074
118.813
121.372
120.631
91.1182
103.448
103.913
107.645
107.827
110.037
109.581
110.609
109.547
109.972
107.691
107.377
103.639
103.99
93.8784
79.1379
91.1293
96.1513
99.7223
101.01
102.851
103.015
103.695
102.972
102.798
100.802
99.4695
95.9264
92.1268
81.4403
97.9026
100.386
103.481
104.458
104.902
105.436
105.494
105.75
105.492
105.426
104.802
104.311
103.613
101.588
100.32
91.4885
94.2045
97.2926
98.903
99.5357
100.148
100.322
100.56
100.312
100.11
99.3819
98.7192
97.4555
95.4335
93.7942
97.6129
99.5486
102.015
103.204
103.624
103.81
103.921
103.994
103.927
103.784
103.503
103.083
102.312
100.829
99.8313
94.0505
95.9383
98.3073
99.6869
100.19
100.404
100.513
100.59
100.513
100.356
100.044
99.5689
98.6492
97.2428
96.2217
97.0683
98.7684
100.933
102.28
102.787
102.927
103.005
103.042
103.004
102.874
102.645
102.198
101.335
100.077
99.1573
95.1362
96.7573
98.8558
100.266
100.837
100.994
101.058
101.09
101.05
100.926
100.686
100.204
99.3001
98.0831
97.1921
96.709
98.2205
100.216
101.629
102.239
102.4
102.448
102.465
102.433
102.321
102.089
101.594
100.695
99.5393
98.7017
95.7897
97.2307
99.1704
100.608
101.268
101.45
101.489
101.498
101.466
101.359
101.116
100.596
99.6838
98.557
97.752
96.5078
97.8715
99.7407
101.179
101.876
102.076
102.109
102.11
102.079
101.975
101.726
101.189
100.279
99.1901
98.4233
96.2379
97.5416
99.359
100.803
101.538
101.761
101.79
101.783
101.751
101.65
101.39
100.835
99.9226
98.8595
98.122
96.4005
97.6475
99.4112
100.852
101.616
101.862
101.892
101.878
101.845
101.742
101.473
100.904
99.9946
98.959
98.2498
SCALARS v-velocity float 1
LOOKUP_TABLE default
-0.00103862
-0.00232219
-0.00356849
-0.00365506
-0.00352168
-0.00260364
-0.00159331
-0.000320559
0.000966724
0.00201339
0.00299397
0.0032113
0.00322979
0.00211006
0.000964882
0.00139621
0.00296439
0.00463552
0.00465572
0.0045341
0.00332925
0.00207794
0.000461042
-0.00117703
-0.00248037
-0.00377522
-0.00401699
-0.00414696
-0.00265769
-0.00128924
-0.00248779
-0.00583558
-0.00847025
-0.00856619
-0.00785622
-0.0056688
-0.00319802
-0.000287958
0.00263953
0.00512815
0.00736262
0.00813191
0.00811755
0.00560663
0.00240075
0.00613179
0.0127504
0.0196076
0.0193297
0.0185353
0.0133982
0.00810702
0.00140792
-0.00536275
-0.0107956
-0.0162013
-0.0173455
-0.0180637
-0.0117697
-0.00577867
-0.00836311
-0.0196319
-0.0267724
-0.0262577
-0.0228331
-0.0160984
-0.0085477
-0.000313969
0.00797146
0.0154623
0.0222209
0.025637
0.0261669
0.0192004
0.00815477
0.0246263
0.0489724
0.0729856
0.0707859
0.0662851
0.0475502
0.0276359
0.00355302
-0.0207597
-0.0409249
-0.0603244
-0.0656267
-0.0688315
-0.0462548
-0.0235649
-0.0239742
-0.0497486
-0.0596451
-0.0538082
-0.0409791
-0.0269714
-0.0123185
0.000308752
0.0131928
0.0272773
0.0411607
0.0535074
0.0587837
0.0488979
0.0232442
0.101818
0.176116
0.251437
0.244605
0.219678
0.159624
0.0877863
0.00819203
-0.0722594
-0.144111
-0.205756
-0.232216
-0.240978
-0.16874
-0.0982541
-0.0248464
0.0135411
0.0619903
0.0841691
0.112319
0.0908959
0.0596171
0.00450391
-0.0490479
-0.0834722
-0.105301
-0.0800068
-0.0607231
-0.0145882
0.0207964
0.419458
0.614051
0.809165
0.841131
0.676923
0.524097
0.262662
0.0170614
-0.232162
-0.491272
-0.648334
-0.814068
-0.786853
-0.595566
-0.404182
1.11132
1.62578
1.9811
1.87503
1.67593
1.1923
0.647761
0.0212521
-0.596763
-1.15355
-1.63359
-1.84687
-1.95407
-1.6154
-1.1359
-0.367553
3.42796
2.43655
3.05667
1.9619
1.67794
0.739671
0.032428
-0.68787
-1.61602
-1.91667
-3.0036
-2.41331
-3.41216
0.39178
23.2932
20.2549
16.3896
13.2492
9.32579
6.30799
3.04352
0.0640819
-2.88751
-6.17753
-9.15016
-13.1198
-16.1769
-20.101
-23.0628
25.3704
16.0196
13.0634
8.53462
6.52212
3.74517
2.00554
0.0719404
-1.87313
-3.5979
-6.38888
-8.37133
-12.9021
-15.8212
-25.5214
11.5035
7.27111
6.88979
4.29915
3.83001
2.08309
1.25152
0.0660871
-1.17371
-1.9563
-3.77869
-4.18364
-6.88936
-7.23239
-11.7292
-8.30652
-8.72296
-4.68954
-4.88841
-2.38084
-2.1439
-0.685648
0.121417
0.851814
2.38785
2.55005
5.14041
4.8734
8.98962
8.5192
-20.9481
-18.4643
-12.3036
-10.3307
-6.34819
-4.53864
-1.89356
0.150532
2.09881
4.86278
6.58397
10.7318
12.6489
19.1013
21.5801
-23.7314
-18.5624
-14.5703
-10.9111
-7.90005
-4.98771
-2.4363
0.187092
2.62601
5.38503
8.09241
11.3943
14.8026
19.3143
24.2989
-2.43603
-0.314347
-2.0886
-1.17169
-1.64427
-0.830631
-0.586858
0.0370478
0.597147
0.890817
1.63436
1.2065
2.04736
0.243804
2.2872
-2.10288
-2.40667
-2.92884
-2.38407
-2.19089
-1.37864
-0.756095
0.0599699
0.82772
1.48782
2.25695
2.47653
2.97432
2.37303
2.09026
-0.176442
-0.201597
-0.316104
-0.136878
-0.289968
-0.125907
-0.114018
0.00700936
0.113361
0.136095
0.295375
0.15232
0.314139
0.156205
0.149106
-0.200727
-0.395777
-0.48821
-0.392564
-0.419374
-0.273259
-0.161101
0.0136348
0.179178
0.297631
0.442011
0.416023
0.487072
0.353461
0.177212
-0.0325555
-0.0923359
-0.0633216
-0.00996558
-0.0365668
-0.0212117
-0.0213883
0.00142766
0.0219823
0.026397
0.0474774
0.0227697
0.0588239
0.0629197
0.01477
-0.0465676
-0.114122
-0.10036
-0.0582515
-0.0607276
-0.0470989
-0.0314042
0.000790696
0.032182
0.0519558
0.0704011
0.0656031
0.0882509
0.0817868
0.0285395
-0.0228604
-0.0541853
-0.0260359
0.00782577
0.00942246
0.00170698
-0.00342331
-0.00020297
0.00369597
0.00312882
0.00101354
0.000495904
0.0181349
0.0310417
0.00971182
-0.0270766
-0.0604287
-0.0410987
-0.00960507
-0.00118776
-0.00567965
-0.00775369
-0.00236205
0.00425335
0.00684274
0.00684158
0.0111849
0.0268796
0.0346053
0.0136155
-0.0194893
-0.0409252
-0.0216277
0.00607357
0.0147956
0.00747725
0.000450663
-0.00100022
-0.000808033
-0.00299648
-0.00624294
-0.00174475
0.0119649
0.0213974
0.0091973
-0.0210017
-0.0449342
-0.0311413
-0.00529377
0.00619943
0.00228489
-0.00285357
-0.00308347
-0.00145727
-0.00181944
-0.00255176
0.00389101
0.0168527
0.02344
0.0104165
-0.0167909
-0.0350525
-0.0224602
0.000720513
0.0117765
0.00787201
0.00111703
-0.00187379
-0.00285541
-0.00487719
-0.00608778
-0.000109252
0.0114794
0.0177485
0.0082387
-0.0181731
-0.0391141
-0.0295118
-0.00701468
0.00579241
0.00438079
-0.000899988
-0.00308739
-0.00320599
-0.00391151
-0.00328349
0.00388182
0.0152823
0.0199768
0.00910483
SCALARS Mach float 1
LOOKUP_TABLE default
0.250926
0.25093
0.250936
0.250944
0.250949
0.250955
0.250957
0.25096
0.250958
0.250957
0.250952
0.250947
0.25094
0.250934
0.25093
0.249056
0.249053
0.24905
0.249047
0.249045
0.249044
0.249043
0.249043
0.249044
0.249045
0.249046
0.249049
0.249052
0.249055
0.249057
0.251082
0.251094
0.251109
0.251128
0.251141
0.251155
0.251158
0.251164
0.251159
0.251157
0.251144
0.251133
0.251114
0.2511
0.251089
0.248866
0.248849
0.248825
0.248803
0.248786
0.248775
0.248769
0.248767
0.248769
0.248775
0.248786
0.248803
0.248826
0.24885
0.248866
0.251258
0.251304
0.25136
0.251431
0.25147
0.251517
0.251526
0.251547
0.251529
0.251523
0.251478
0.251441
0.251373
0.251319
0.251274
0.248663
0.24859
0.248491
0.24841
0.248352
0.248324
0.248305
0.248306
0.248306
0.248325
0.248354
0.248412
0.248492
0.248589
0.24866
0.251211
0.251422
0.251635
0.251901
0.252032
0.252197
0.252223
0.252292
0.252229
0.252208
0.25205
0.251923
0.251664
0.251457
0.251252
0.248548
0.248261
0.247964
0.247786
0.247674
0.247679
0.247654
0.247696
0.247657
0.247686
0.247682
0.247798
0.247971
0.248263
0.248539
0.249959
0.251019
0.25171
0.252696
0.253125
0.253685
0.25378
0.253984
0.253792
0.253708
0.253164
0.252744
0.251773
0.251101
0.250071
0.247445
0.246795
0.24662
0.246857
0.247022
0.247605
0.247751
0.248049
0.247766
0.247639
0.247055
0.246914
0.246669
0.246841
0.247415
0.243544
0.24913
0.250759
0.254535
0.256035
0.257624
0.258139
0.258536
0.25816
0.257663
0.256113
0.25463
0.250881
0.249272
0.24387
0.226329
0.240085
0.24373
0.249009
0.251498
0.254954
0.255954
0.256977
0.255996
0.255051
0.251606
0.249182
0.243909
0.240482
0.22625
0.229603
0.239788
0.258359
0.263698
0.26952
0.270283
0.272783
0.271998
0.272812
0.270355
0.269617
0.263914
0.258596
0.239951
0.230008
0.337091
0.319678
0.321281
0.314134
0.315383
0.309749
0.31141
0.308137
0.311408
0.309655
0.315389
0.313888
0.321131
0.319604
0.340043
0.35275
0.336379
0.328875
0.319432
0.317337
0.311185
0.31141
0.30839
0.311457
0.31121
0.317478
0.319399
0.329086
0.337376
0.355745
0.374098
0.357967
0.350071
0.339767
0.337603
0.331239
0.331578
0.328345
0.331681
0.331392
0.337913
0.340054
0.350828
0.359658
0.377308
0.3075
0.310003
0.303086
0.302091
0.299332
0.298363
0.296975
0.296746
0.297057
0.298391
0.29955
0.30207
0.303641
0.311434
0.313128
0.23811
0.267136
0.266988
0.275892
0.276009
0.281256
0.280176
0.282518
0.280107
0.281094
0.275719
0.275246
0.266417
0.268611
0.245101
0.193465
0.224486
0.23718
0.246953
0.250455
0.255417
0.255969
0.25772
0.25585
0.25526
0.249894
0.246283
0.236534
0.226829
0.198816
0.248401
0.254524
0.2624
0.264771
0.265965
0.267232
0.267442
0.268011
0.267441
0.267209
0.265729
0.264409
0.262745
0.257519
0.254436
0.226646
0.233502
0.241176
0.245366
0.247013
0.248675
0.249128
0.249767
0.249098
0.248571
0.246619
0.244899
0.241545
0.236472
0.23223
0.246492
0.251317
0.257486
0.260443
0.261507
0.261963
0.262251
0.262419
0.262266
0.261899
0.261211
0.260146
0.258223
0.254492
0.251996
0.234137
0.238807
0.244662
0.248102
0.249363
0.249926
0.250199
0.250403
0.250196
0.249808
0.249002
0.247809
0.245492
0.241992
0.239443
0.244371
0.248604
0.253996
0.257349
0.258617
0.258967
0.259162
0.259253
0.25916
0.258836
0.258268
0.257148
0.254988
0.251838
0.249534
0.237425
0.241432
0.246618
0.25011
0.251527
0.251924
0.252082
0.252164
0.252062
0.251756
0.251157
0.249957
0.247707
0.244682
0.242466
0.243013
0.246772
0.251732
0.255245
0.256764
0.257166
0.257286
0.25733
0.25725
0.256972
0.256394
0.255158
0.252913
0.250023
0.247929
0.239388
0.242954
0.247753
0.251311
0.252948
0.253402
0.253498
0.253523
0.253443
0.253178
0.252576
0.251282
0.249013
0.24621
0.244207
0.242236
0.245624
0.250265
0.253836
0.255569
0.25607
0.256152
0.256153
0.256077
0.255821
0.255201
0.253862
0.251591
0.248871
0.246956
0.24073
0.243959
0.248459
0.252036
0.253857
0.254412
0.254486
0.254468
0.254391
0.25414
0.253496
0.252115
0.249844
0.247197
0.245361
0.241728
0.244823
0.2492
0.252774
0.254672
0.255284
0.25536
0.255325
0.255243
0.254989
0.25432
0.252903
0.250634
0.248051
0.246281
