# vtk DataFile Version 3.0
Structured Grid Example
ASCII
DATASET STRUCTURED_GRID
DIMENSIONS 15 30 1
POINTS 450 FLOAT
0.0833327 0.0333334 0
0.0833313 0.1 0
0.0833301 0.166667 0
0.083329 0.233333 0
0.0833281 0.3 0
0.0833274 0.366667 0
0.083327 0.433333 0
0.0833268 0.5 0
0.083327 0.566667 0
0.0833274 0.633333 0
0.0833281 0.7 0
0.083329 0.766667 0
0.0833301 0.833333 0
0.0833313 0.9 0
0.0833327 0.966667 0
0.249998 0.0333334 0
0.249993 0.1 0
0.249989 0.166667 0
0.249986 0.233334 0
0.249983 0.3 0
0.24998 0.366667 0
0.249979 0.433333 0
0.249979 0.5 0
0.249979 0.566667 0
0.24998 0.633333 0
0.249983 0.7 0
0.249986 0.766666 0
0.249989 0.833333 0
0.249993 0.9 0
0.249998 0.966667 0
0.416662 0.0333336 0
0.416654 0.100001 0
0.416646 0.166668 0
0.416639 0.233334 0
0.416633 0.300001 0
0.416628 0.366667 0
0.416626 0.433334 0
0.416625 0.5 0
0.416626 0.566666 0
0.416628 0.633333 0
0.416633 0.699999 0
0.416639 0.766666 0
0.416646 0.833332 0
0.416654 0.899999 0
0.416662 0.966666 0
0.583326 0.033334 0
0.58331 0.100002 0
0.583296 0.166669 0
0.583284 0.233336 0
0.583273 0.300003 0
0.583266 0.366669 0
0.583261 0.433335 0
0.583259 0.5 0
0.583261 0.566665 0
0.583266 0.633331 0
0.583273 0.699997 0
0.583284 0.766664 0
0.583296 0.833331 0
0.58331 0.899998 0
0.583326 0.966666 0
0.749987 0.0333351 0
0.749961 0.100005 0
0.749937 0.166674 0
0.749915 0.233342 0
0.749898 0.300008 0
0.749884 0.366673 0
0.749876 0.433337 0
0.749874 0.5 0
0.749876 0.566663 0
0.749884 0.633327 0
0.749898 0.699992 0
0.749915 0.766658 0
0.749937 0.833326 0
0.749961 0.899995 0
0.749987 0.966665 0
0.916644 0.033338 0
0.916601 0.100013 0
0.91656 0.166686 0
0.916524 0.233356 0
0.916494 0.300021 0
0.916472 0.366683 0
0.916458 0.433342 0
0.916454 0.5 0
0.916458 0.566658 0
0.916472 0.633317 0
0.916494 0.699979 0
0.916524 0.766644 0
0.91656 0.833314 0
0.916601 0.899987 0
0.916644 0.966662 0
1.0833 0.0333461 0
1.08322 0.100036 0
1.08315 0.166719 0
1.08309 0.233394 0
1.08304 0.300058 0
1.08301 0.366712 0
1.08298 0.433358 0
1.08298 0.5 0
1.08298 0.566642 0
1.08301 0.633288 0
1.08304 0.699942 0
1.08309 0.766606 0
1.08315 0.833281 0
1.08322 0.899964 0
1.0833 0.966654 0
1.24994 0.0333682 0
1.24981 0.100098 0
1.2497 0.16681 0
1.24959 0.233497 0
1.24951 0.300156 0
1.24945 0.366788 0
1.24942 0.433399 0
1.2494 0.5 0
1.24942 0.566601 0
1.24945 0.633212 0
1.24951 0.699844 0
1.24959 0.766503 0
1.2497 0.83319 0
1.24981 0.899902 0
1.24994 0.966632 0
1.41656 0.0334298 0
1.41634 0.10027 0
1.41615 0.16706 0
1.41598 0.233778 0
1.41585 0.300419 0
1.41575 0.36699 0
1.41569 0.433509 0
1.41567 0.5 0
1.41569 0.566491 0
1.41575 0.63301 0
1.41585 0.699581 0
1.41598 0.766222 0
1.41615 0.83294 0
1.41634 0.89973 0
1.41656 0.96657 0
1.58313 0.0336075 0
1.58275 0.10076 0
1.58242 0.167751 0
1.58215 0.234537 0
1.58195 0.301115 0
1.58181 0.367517 0
1.58173 0.433791 0
1.58171 0.5 0
1.58173 0.566209 0
1.58181 0.632483 0
1.58195 0.698885 0
1.58215 0.765463 0
1.58242 0.832249 0
1.58275 0.89924 0
1.58313 0.966392 0
1.74959 0.0341677 0
1.74885 0.102235 0
1.74829 0.169714 0
1.74791 0.236575 0
1.74766 0.302905 0
1.74751 0.368829 0
1.74744 0.434482 0
1.74741 0.5 0
1.74744 0.565518 0
1.74751 0.631171 0
1.74766 0.697095 0
1.74791 0.763425 0
1.74829 0.830286 0
1.74885 0.897765 0
1.74959 0.965832 0
1.91555 0.0363295 0
1.91388 0.107253 0
1.91312 0.175401 0
1.91283 0.241837 0
1.91276 0.307169 0
1.91277 0.371793 0
1.9128 0.435995 0
1.91281 0.5 0
1.9128 0.564005 0
1.91277 0.628207 0
1.91276 0.692831 0
1.91283 0.758163 0
1.91312 0.824599 0
1.91388 0.892747 0
1.91555 0.963671 0
2.07838 0.0591504 0
2.07417 0.125973 0
2.07554 0.190391 0
2.07663 0.253364 0
2.07743 0.315525 0
2.07798 0.377223 0
2.07829 0.438667 0
2.0784 0.5 0
2.07829 0.561333 0
2.07798 0.622777 0
2.07743 0.684475 0
2.07663 0.746636 0
2.07554 0.809609 0
2.07417 0.874027 0
2.07838 0.94085 0
2.24384 0.096456 0
2.23911 0.153168 0
2.24152 0.210396 0
2.24318 0.267878 0
2.24431 0.325632 0
2.24503 0.383617 0
2.24544 0.441767 0
2.24557 0.5 0
2.24544 0.558233 0
2.24503 0.616383 0
2.24431 0.674368 0
2.24318 0.732122 0
2.24152 0.789604 0
2.23911 0.846832 0
2.24384 0.903544 0
2.41462 0.118677 0
2.41292 0.170231 0
2.41356 0.223198 0
2.41406 0.277268 0
2.41444 0.332207 0
2.4147 0.387788 0
2.41485 0.44379 0
2.4149 0.5 0
2.41485 0.55621 0
2.4147 0.612212 0
2.41444 0.667793 0
2.41406 0.722732 0
2.41356 0.776802 0
2.41292 0.829769 0
2.41462 0.881323 0
2.58538 0.118677 0
2.58708 0.170231 0
2.58644 0.223198 0
2.58594 0.277268 0
2.58556 0.332207 0
2.5853 0.387788 0
2.58515 0.44379 0
2.5851 0.5 0
2.58515 0.55621 0
2.5853 0.612212 0
2.58556 0.667793 0
2.58594 0.722732 0
2.58644 0.776802 0
2.58708 0.829769 0
2.58538 0.881323 0
2.75616 0.096456 0
2.76089 0.153168 0
2.75848 0.210396 0
2.75682 0.267878 0
2.75569 0.325632 0
2.75497 0.383617 0
2.75456 0.441767 0
2.75443 0.5 0
2.75456 0.558233 0
2.75497 0.616383 0
2.75569 0.674368 0
2.75682 0.732122 0
2.75848 0.789604 0
2.76089 0.846832 0
2.75616 0.903544 0
2.92162 0.0591504 0
2.92583 0.125973 0
2.92446 0.190391 0
2.92337 0.253364 0
2.92257 0.315525 0
2.92202 0.377223 0
2.92171 0.438667 0
2.9216 0.5 0
2.92171 0.561333 0
2.92202 0.622777 0
2.92257 0.684475 0
2.92337 0.746636 0
2.92446 0.809609 0
2.92583 0.874027 0
2.92162 0.94085 0
3.08445 0.0363295 0
3.08612 0.107253 0
3.08688 0.175401 0
3.08717 0.241837 0
3.08724 0.307169 0
3.08723 0.371793 0
3.0872 0.435995 0
3.08719 0.5 0
3.0872 0.564005 0
3.08723 0.628207 0
3.08724 0.692831 0
3.08717 0.758163 0
3.08688 0.824599 0
3.08612 0.892747 0
3.08445 0.963671 0
3.25041 0.0341677 0
3.25115 0.102235 0
3.25171 0.169714 0
3.25209 0.236575 0
3.25234 0.302905 0
3.25249 0.368829 0
3.25256 0.434482 0
3.25259 0.5 0
3.25256 0.565518 0
3.25249 0.631171 0
3.25234 0.697095 0
3.25209 0.763425 0
3.25171 0.830286 0
3.25115 0.897765 0
3.25041 0.965832 0
3.41687 0.0336075 0
3.41725 0.10076 0
3.41758 0.167751 0
3.41785 0.234537 0
3.41805 0.301115 0
3.41819 0.367517 0
3.41827 0.433791 0
3.41829 0.5 0
3.41827 0.566209 0
3.41819 0.632483 0
3.41805 0.698885 0
3.41785 0.765463 0
3.41758 0.832249 0
3.41725 0.89924 0
3.41687 0.966392 0
3.58344 0.0334298 0
3.58366 0.10027 0
3.58385 0.16706 0
3.58402 0.233778 0
3.58415 0.300419 0
3.58425 0.36699 0
3.58431 0.433509 0
3.58433 0.5 0
3.58431 0.566491 0
3.58425 0.63301 0
3.58415 0.699581 0
3.58402 0.766222 0
3.58385 0.83294 0
3.58366 0.89973 0
3.58344 0.96657 0
3.75006 0.0333682 0
3.75019 0.100098 0
3.7503 0.16681 0
3.75041 0.233497 0
3.75049 0.300156 0
3.75055 0.366788 0
3.75058 0.433399 0
3.7506 0.5 0
3.75058 0.566601 0
3.75055 0.633212 0
3.75049 0.699844 0
3.75041 0.766503 0
3.7503 0.83319 0
3.75019 0.899902 0
3.75006 0.966632 0
3.9167 0.0333461 0
3.91678 0.100036 0
3.91685 0.166719 0
3.91691 0.233394 0
3.91696 0.300058 0
3.91699 0.366712 0
3.91702 0.433358 0
3.91702 0.5 0
3.91702 0.566642 0
3.91699 0.633288 0
3.91696 0.699942 0
3.91691 0.766606 0
3.91685 0.833281 0
3.91678 0.899964 0
3.9167 0.966654 0
4.08336 0.033338 0
4.0834 0.100013 0
4.08344 0.166686 0
4.08348 0.233356 0
4.08351 0.300021 0
4.08353 0.366683 0
4.08354 0.433342 0
4.08355 0.5 0
4.08354 0.566658 0
4.08353 0.633317 0
4.08351 0.699979 0
4.08348 0.766644 0
4.08344 0.833314 0
4.0834 0.899987 0
4.08336 0.966662 0
4.25001 0.0333351 0
4.25004 0.100005 0
4.25006 0.166674 0
4.25008 0.233342 0
4.2501 0.300008 0
4.25012 0.366673 0
4.25012 0.433337 0
4.25013 0.5 0
4.25012 0.566663 0
4.25012 0.633327 0
4.2501 0.699992 0
4.25008 0.766658 0
4.25006 0.833326 0
4.25004 0.899995 0
4.25001 0.966665 0
4.41667 0.033334 0
4.41669 0.100002 0
4.4167 0.166669 0
4.41672 0.233336 0
4.41673 0.300003 0
4.41673 0.366669 0
4.41674 0.433335 0
4.41674 0.5 0
4.41674 0.566665 0
4.41673 0.633331 0
4.41673 0.699997 0
4.41672 0.766664 0
4.4167 0.833331 0
4.41669 0.899998 0
4.41667 0.966666 0
4.58334 0.0333336 0
4.58335 0.100001 0
4.58335 0.166668 0
4.58336 0.233334 0
4.58337 0.300001 0
4.58337 0.366667 0
4.58337 0.433334 0
4.58338 0.5 0
4.58337 0.566666 0
4.58337 0.633333 0
4.58337 0.699999 0
4.58336 0.766666 0
4.58335 0.833332 0
4.58335 0.899999 0
4.58334 0.966666 0
4.75 0.0333334 0
4.75001 0.1 0
4.75001 0.166667 0
4.75001 0.233334 0
4.75002 0.3 0
4.75002 0.366667 0
4.75002 0.433333 0
4.75002 0.5 0
4.75002 0.566667 0
4.75002 0.633333 0
4.75002 0.7 0
4.75001 0.766666 0
4.75001 0.833333 0
4.75001 0.9 0
4.75 0.966667 0
4.91667 0.0333334 0
4.91667 0.1 0
4.91667 0.166667 0
4.91667 0.233333 0
4.91667 0.3 0
4.91667 0.366667 0
4.91667 0.433333 0
4.91667 0.5 0
4.91667 0.566667 0
4.91667 0.633333 0
4.91667 0.7 0
4.91667 0.766667 0
4.91667 0.833333 0
4.91667 0.9 0
4.91667 0.966667 0
POINT_DATA 450
SCALARS pressure float 1
LOOKUP_TABLE default
93580.7
93581.1
93579.3
93581.4
93579.1
93582.4
93579.4
93582.8
93579.3
93582.3
93579
93581.3
93579.1
93580.8
93580.4
91359.7
91344
91320.7
91292.2
91271
91251.1
91243.3
91236.8
91243.2
91250.8
91270.7
91291.8
91320.2
91343.4
91359.1
93705.4
93706.4
93705.1
93707.9
93705.3
93709
93705.5
93709.4
93705.5
93709
93705.3
93707.8
93705.1
93706.4
93705.3
91183.7
91179.7
91178.1
91169
91169
91159.2
91162.9
91155.3
91162.8
91159
91168.8
91168.7
91177.8
91179.3
91183.3
93814.7
93816.6
93814.5
93819.4
93815
93821.4
93815.4
93822.1
93815.4
93821.4
93815
93819.4
93814.5
93816.6
93814.7
91073.1
91067.3
91071.2
91057
91065.9
91047.7
91061.7
91044
91061.6
91047.5
91065.6
91056.6
91070.8
91066.7
91072.6
93912.8
93915.7
93910.3
93917.6
93908
93918.1
93906.5
93918.1
93906.5
93918
93907.9
93917.5
93910.2
93915.6
93912.7
91008.4
90988.6
90997.8
90953.9
90973.4
90922.9
90955.3
90910.8
90955
90922.4
90972.7
90953
90996.8
90987.5
91007.3
94017.5
94017.6
93999.7
94004.1
93978.6
93989.7
93964.8
93983.7
93964.8
93989.4
93978.4
94003.6
93999.3
94017
94017
91139.5
91009.8
91018.3
90830.6
90857.2
90693.7
90758.6
90644.2
90758
90692.6
90855.5
90828.4
91015.7
91006.9
91136.7
94266.5
94204.4
94118.3
94083.7
93983.9
93990.1
93909.7
93955.8
93909.6
93989.2
93983.5
94082.1
94117.5
94202.2
94265.3
92741.2
91299.9
91229
90363.6
90312.2
89858.7
89897.3
89701.6
89895.9
89856.8
90307.8
90359
91221.5
91291.5
92731.2
95528.1
94851.1
94036.2
93882.8
93472.2
93520.5
93264.9
93423.3
93264.8
93517.9
93472
93877
94036.7
94840.3
95530.2
83061.5
84725.6
83895
85200.7
84547.3
85543.2
84880.9
85662.6
84880.7
85546.8
84546.9
85209
83895.4
84740.8
83062
86994.2
89020
88727
90229.9
89708.3
90850.7
90153.3
91041.4
90150.5
90852.2
89700
90232.9
88713.3
89024.5
86973.8
79084
81684.8
80974.4
82964
82130.8
83675.2
82678.8
83902.1
82674.2
83674.6
82116.6
82960.6
80949.4
81673.2
79042.1
89114
90533
89998.7
91172.8
90559.7
91549
90830.5
91672.1
90825.3
91550.4
90543.1
91174.6
89968.3
90531.3
89064.7
89730.7
88712.9
88427.5
88077
87768.3
87774.9
87486.8
87689.6
87485.7
87785.1
87765.2
88099.1
88422.1
88749.9
89733.7
97094.9
95720.4
95476.8
94913
94649.3
94487.1
94292.3
94357.1
94296.8
94493.2
94664.2
94925.8
95506.1
95740.8
97153.1
88872.9
88894.8
88801.9
88835.4
88721.2
88781.1
88668.4
88760.5
88668.2
88781.9
88720.7
88836.1
88800.9
88893.5
88871.6
95262.8
95145.1
95088.7
94968.8
94902
94840
94795.3
94795
94796.9
94842
94906.5
94972.4
95095.3
95149.4
95269.4
89140.9
89149
89124.7
89146.4
89110.8
89142.3
89102.4
89140.4
89102.5
89142.2
89111
89146.2
89124.9
89148.5
89141
94782.5
94773.4
94761.8
94744.6
94729.8
94718.1
94708.3
94707.9
94708.7
94718.5
94730.9
94745.4
94763.2
94774.3
94783.7
89374.1
89377.6
89369.3
89378.6
89365.8
89378.9
89363.8
89378.9
89363.9
89378.9
89365.9
89378.5
89369.5
89377.5
89374.3
94560.8
94560.4
94557.6
94556
94552.4
94551.3
94548.7
94549.4
94548.8
94551.4
94552.6
94556.1
94557.9
94560.5
94561
89550.1
89551.7
89548.6
89552.6
89547.6
89553.1
89547.1
89553.3
89547.2
89553.1
89547.8
89552.6
89548.8
89551.8
89550.4
94414.8
94414.9
94414
94414.1
94413
94413.2
94412.3
94412.9
94412.3
94413.2
94413
94414.1
94414
94414.8
94414.7
89681.1
89682
89680.9
89682.8
89681
89683.5
89681.1
89683.8
89681.2
89683.7
89681.2
89683.1
89681.2
89682.3
89681.5
94309
94309
94308.6
94308.7
94308.2
94308.4
94308
94308.2
94308
94308.3
94308.2
94308.6
94308.5
94308.9
94308.9
89775.5
89777
89777.6
89779.9
89779.9
89782.2
89781.3
89783.1
89781.4
89782.5
89780.3
89780.5
89778.3
89777.9
89776.6
SCALARS density float 1
LOOKUP_TABLE default
1.21878
1.22013
1.22206
1.2238
1.22485
1.22544
1.22566
1.22577
1.22566
1.22545
1.22486
1.22381
1.22205
1.22009
1.21872
1.20359
1.20439
1.20546
1.20629
1.20675
1.2069
1.20694
1.20693
1.20694
1.2069
1.20675
1.20629
1.20547
1.2044
1.2036
1.21918
1.22058
1.22263
1.22449
1.22564
1.22628
1.22651
1.22663
1.22651
1.22628
1.22565
1.2245
1.22262
1.22053
1.21911
1.20271
1.20359
1.20478
1.20574
1.20639
1.20661
1.20675
1.20672
1.20676
1.20661
1.20639
1.20575
1.20479
1.20361
1.20274
1.21936
1.22081
1.223
1.22501
1.22622
1.22694
1.22717
1.22732
1.22717
1.22695
1.22623
1.22502
1.22298
1.22077
1.21928
1.2025
1.20335
1.20448
1.20534
1.20604
1.20618
1.2064
1.20627
1.2064
1.20618
1.20604
1.20534
1.20449
1.20337
1.20254
1.21937
1.22088
1.22321
1.22538
1.22662
1.22744
1.22764
1.22785
1.22764
1.22745
1.22663
1.22539
1.22319
1.22083
1.21928
1.20275
1.2035
1.20452
1.20505
1.20582
1.20561
1.206
1.20558
1.206
1.2056
1.20582
1.20504
1.20452
1.20352
1.20281
1.21936
1.2209
1.22334
1.22565
1.2268
1.22773
1.2278
1.22812
1.2278
1.22773
1.22681
1.22566
1.22332
1.22084
1.21926
1.2051
1.20476
1.20556
1.20454
1.20538
1.20395
1.20469
1.20352
1.20468
1.20394
1.20537
1.20452
1.20554
1.20477
1.20516
1.22024
1.22157
1.22369
1.22583
1.22635
1.22734
1.2269
1.22751
1.2269
1.22734
1.22636
1.22583
1.22367
1.22149
1.22012
1.22418
1.20874
1.20878
1.20049
1.20062
1.19604
1.19663
1.19449
1.19662
1.19603
1.20057
1.20044
1.20871
1.2087
1.22421
1.23051
1.22708
1.22247
1.22376
1.22135
1.22278
1.22073
1.22239
1.22073
1.22277
1.22136
1.22372
1.22247
1.2269
1.23038
1.1225
1.14057
1.13186
1.14669
1.14079
1.15145
1.14492
1.15289
1.14492
1.1515
1.1408
1.14679
1.13187
1.14081
1.12295
1.16111
1.18168
1.17801
1.19353
1.18887
1.20025
1.19361
1.20217
1.19359
1.20027
1.1888
1.19356
1.17786
1.18174
1.16112
1.08175
1.10978
1.10212
1.12383
1.11606
1.13233
1.12239
1.13486
1.12235
1.13234
1.11593
1.12381
1.10187
1.1098
1.08175
1.17709
1.19204
1.18796
1.20006
1.19554
1.20515
1.19894
1.20661
1.19889
1.20517
1.1954
1.20007
1.18766
1.19205
1.17696
1.18865
1.18104
1.17902
1.17621
1.17448
1.17456
1.17234
1.17394
1.17234
1.17467
1.17448
1.17644
1.179
1.1816
1.18945
1.24182
1.2355
1.23425
1.23081
1.22955
1.22888
1.22744
1.22811
1.22749
1.22894
1.2297
1.23089
1.23447
1.23579
1.2432
1.18099
1.18284
1.18336
1.18474
1.18491
1.18596
1.18538
1.18613
1.18539
1.18597
1.18492
1.18472
1.18337
1.18304
1.18167
1.22754
1.22857
1.22909
1.22908
1.22943
1.22961
1.22947
1.22958
1.22949
1.22963
1.22949
1.22908
1.22912
1.22877
1.22829
1.18592
1.18732
1.18852
1.18986
1.19062
1.1915
1.19153
1.19186
1.19154
1.1915
1.19062
1.18982
1.18855
1.18758
1.18658
1.22153
1.223
1.22404
1.22483
1.22558
1.22614
1.22633
1.22642
1.22634
1.22616
1.2256
1.22481
1.22403
1.22322
1.22217
1.1908
1.192
1.19336
1.19463
1.19553
1.19627
1.1965
1.19666
1.1965
1.19627
1.19553
1.1946
1.1934
1.19229
1.19142
1.21708
1.21838
1.21956
1.22052
1.22134
1.22197
1.22225
1.22235
1.22226
1.22199
1.22135
1.22049
1.21957
1.21862
1.21767
1.1956
1.19668
1.19806
1.19931
1.20024
1.20091
1.20121
1.20132
1.20121
1.20092
1.20023
1.19928
1.19811
1.19698
1.19619
1.21272
1.21386
1.2151
1.21614
1.21699
1.21762
1.21793
1.21802
1.21793
1.21763
1.21699
1.21611
1.21513
1.21413
1.21328
1.20055
1.20155
1.20291
1.20412
1.20505
1.20569
1.20601
1.20611
1.20602
1.2057
1.20503
1.2041
1.20297
1.20186
1.20112
1.2081
1.20911
1.21039
1.21151
1.21239
1.21302
1.21334
1.21344
1.21335
1.21303
1.21238
1.21148
1.21044
1.2094
1.20864
1.20588
1.20684
1.20814
1.20931
1.21021
1.21084
1.21116
1.21127
1.21117
1.21084
1.21019
1.20928
1.2082
1.20714
1.20642
SCALARS u-velocity float 1
LOOKUP_TABLE default
124.162
125.297
126.822
128.135
128.896
129.312
129.444
129.524
129.445
129.314
128.901
128.144
126.841
125.336
124.221
119.57
119.471
119.403
119.365
119.426
119.471
119.541
119.536
119.541
119.473
119.427
119.366
119.404
119.47
119.565
123.952
125.244
126.923
128.372
129.171
129.624
129.744
129.843
129.745
129.626
129.176
128.381
126.943
125.286
124.018
120.396
119.951
119.491
119.057
118.918
118.786
118.815
118.744
118.815
118.787
118.918
119.056
119.489
119.944
120.379
123.579
125.116
126.987
128.651
129.49
130.019
130.114
130.26
130.115
130.021
129.495
128.66
127.009
125.162
123.655
120.959
120.184
119.468
118.731
118.523
118.286
118.323
118.202
118.323
118.287
118.522
118.73
119.464
120.175
120.93
123.104
124.98
127.016
128.961
129.81
130.449
130.509
130.719
130.51
130.45
129.816
128.972
127.04
125.029
123.195
121.367
120.225
119.353
118.376
118.184
117.958
117.996
117.902
117.997
117.962
118.185
118.378
119.351
120.219
121.327
122.422
124.793
126.966
129.29
130.177
130.936
131.03
131.266
131.032
130.938
130.184
129.302
126.997
124.842
122.532
120.58
119.517
118.704
118.153
118.142
118.441
118.42
118.626
118.423
118.452
118.15
118.166
118.708
119.53
120.53
120.646
123.866
126.713
129.602
131.052
131.895
132.469
132.461
132.472
131.899
131.064
129.619
126.753
123.914
120.787
108.58
116.884
116.542
120.297
120.89
123.136
123.13
124.042
123.138
123.154
120.916
120.335
116.575
116.964
108.529
110.98
117.485
128.822
131.331
136.199
136.049
138.493
137.183
138.498
136.061
136.212
131.368
128.872
117.573
111.143
157.028
150.984
153.789
150.139
152.621
149.083
151.471
148.585
151.474
149.067
152.633
150.106
153.802
150.956
157.568
170.138
163.528
161.857
157.758
158.255
154.761
156.217
153.702
156.23
154.759
158.29
157.758
161.921
163.653
170.713
177.614
169.622
168.712
163.341
164.467
160.192
162.161
159.08
162.181
160.213
164.536
163.395
168.839
169.85
178.203
148.943
149.765
149.074
149.875
149.634
149.419
149.271
149.03
149.294
149.412
149.702
149.86
149.207
149.917
149.922
112.834
128.656
126.226
134.41
133.316
137.708
135.89
138.508
135.877
137.673
133.285
134.313
126.128
128.67
114.227
95.2086
114.634
116.924
124.677
125.599
129.577
128.705
130.788
128.675
129.553
125.506
124.593
116.729
114.885
96.5226
119.436
125.65
126.987
130.085
130.167
132.282
131.243
132.729
131.239
132.288
130.16
130.063
126.972
126.012
120.733
110.556
116.938
119.262
122.669
123.366
125.504
124.917
126.156
124.907
125.499
123.335
122.617
119.23
117.343
111.855
119.253
123.963
126.305
128.499
129.116
130.385
130.005
130.736
130.005
130.392
129.111
128.465
126.32
124.402
120.47
113.727
118.187
120.935
123.202
124.032
125.247
125.065
125.66
125.064
125.249
124.016
123.153
120.959
118.667
114.946
118.706
122.612
125.435
127.423
128.298
129.215
129.191
129.557
129.194
129.22
128.286
127.378
125.478
123.106
119.86
115.133
118.829
121.846
123.892
124.858
125.724
125.791
126.086
125.793
125.727
124.839
123.84
121.904
119.353
116.284
118.178
121.566
124.604
126.588
127.591
128.346
128.492
128.695
128.496
128.349
127.571
126.539
124.677
122.098
119.283
116.131
119.352
122.475
124.517
125.569
126.29
126.479
126.647
126.483
126.291
125.542
124.464
122.561
119.903
117.225
117.7
120.73
123.846
125.89
126.969
127.646
127.869
128.003
127.874
127.646
126.939
125.84
123.945
121.287
118.765
116.954
119.844
122.978
125.066
126.175
126.828
127.072
127.187
127.076
126.826
126.14
125.014
123.089
120.411
118.002
117.28
120.048
123.164
125.277
126.408
127.045
127.3
127.403
127.304
127.041
126.37
125.227
123.286
120.619
118.308
SCALARS v-velocity float 1
LOOKUP_TABLE default
-0.33349
-0.805842
-1.08167
-1.037
-0.873435
-0.594087
-0.310916
-0.00395342
0.303153
0.586414
0.86641
1.03096
1.07675
0.801826
0.331684
0.0547295
0.097264
0.141325
0.11879
0.105602
0.0654827
0.0371252
0.00117571
-0.0348761
-0.0630784
-0.103219
-0.116295
-0.138965
-0.0951592
-0.0537425
-0.125871
-0.240652
-0.362037
-0.332072
-0.307142
-0.206088
-0.116544
-0.00257921
0.111655
0.20106
0.302492
0.32766
0.358252
0.237404
0.124324
0.092128
0.126873
0.209752
0.163735
0.157836
0.0938598
0.0567763
0.00189234
-0.0534061
-0.0900921
-0.154395
-0.160109
-0.206655
-0.124
-0.0906235
-0.117126
-0.162994
-0.269209
-0.216595
-0.205396
-0.127558
-0.074852
-0.00179317
0.0719889
0.123959
0.202337
0.21314
0.266377
0.160093
0.115372
0.127959
0.129827
0.246262
0.17831
0.179967
0.105745
0.0651713
0.00256076
-0.061338
-0.100731
-0.176059
-0.173637
-0.242863
-0.12631
-0.125774
-0.106749
-0.121242
-0.187425
-0.142149
-0.107562
-0.0710478
-0.0327285
-0.000653504
0.033547
0.0695098
0.107451
0.140011
0.186344
0.118964
0.104502
0.153334
0.180313
0.283815
0.250392
0.207156
0.155895
0.0769769
0.00388974
-0.0728376
-0.14838
-0.203001
-0.243543
-0.280245
-0.175659
-0.150003
0.124253
0.0504378
0.315415
0.222542
0.362453
0.194342
0.153159
0.00203271
-0.143237
-0.191026
-0.354735
-0.221589
-0.311765
-0.0514551
-0.127542
0.0748301
0.644326
0.460148
0.746364
0.405636
0.466551
0.160969
0.00731731
-0.155712
-0.452466
-0.400858
-0.733709
-0.456567
-0.635903
-0.0700033
2.4115
1.83666
3.38064
2.64311
2.66167
1.67359
0.985503
0.00914837
-0.952893
-1.65695
-2.63202
-2.63272
-3.36007
-1.83663
-2.41578
-0.836902
4.12433
1.85105
3.41775
1.71102
1.86601
0.654923
0.0150503
-0.64355
-1.83653
-1.70302
-3.38991
-1.85008
-4.10281
0.827986
27.3692
26.3015
20.0326
17.201
11.5592
8.25172
3.76288
0.0271717
-3.68669
-8.19657
-11.4732
-17.1455
-19.9287
-26.2524
-27.2558
31.4019
19.8134
16.3341
10.5632
8.12595
4.638
2.47601
0.0305874
-2.42641
-4.5776
-8.0737
-10.5035
-16.2727
-19.7462
-31.4411
13.9984
9.33066
8.64859
5.60482
4.83921
2.67738
1.56718
0.0303331
-1.53967
-2.61938
-4.82268
-5.55599
-8.65681
-9.30624
-14.1025
-10.603
-11.0984
-5.64825
-6.2246
-2.7977
-2.78661
-0.836932
0.0740031
0.880617
2.93285
2.84423
6.36506
5.70394
11.2322
10.6828
-24.8054
-24.7662
-14.7445
-14.1258
-7.75309
-6.38126
-2.39316
0.0864269
2.45287
6.56372
7.82962
14.3364
14.8703
25.0611
25.1249
-27.1417
-24.5654
-17.2377
-14.2907
-9.50188
-6.60532
-3.02144
0.142437
3.05169
6.9062
9.53278
14.64
17.2773
25.0491
27.4231
-2.57595
0.113013
-2.41309
-1.19281
-1.83445
-0.898922
-0.683813
0.036613
0.638805
0.967339
1.77745
1.24642
2.33463
-0.0798069
2.45542
-3.50915
-2.34757
-4.02656
-2.88341
-2.90115
-1.69426
-1.0307
0.0477321
1.02932
1.78329
2.8934
2.95151
4.00945
2.36169
3.44889
-0.737097
0.351706
-0.545353
0.119017
-0.407301
0.0276406
-0.154551
0.0134713
0.133414
-0.0027217
0.385958
-0.0960417
0.529488
-0.339439
0.695695
-0.781416
-0.0869706
-0.87465
-0.364688
-0.719431
-0.269391
-0.270374
0.0126022
0.264233
0.291304
0.711112
0.381554
0.866401
0.0828632
0.745149
-0.321229
0.17251
-0.170042
0.131892
-0.125591
0.0692049
-0.0451588
0.00492814
0.0388866
-0.060227
0.119905
-0.120797
0.168316
-0.172049
0.298632
-0.299035
0.0426934
-0.233194
-0.00197045
-0.193847
-0.0181071
-0.0725232
0.00208256
0.0670486
0.0210372
0.18832
0.00663857
0.229156
-0.0517173
0.277355
-0.157989
0.0649337
-0.0572219
0.0784981
-0.0412914
0.0422147
-0.0132679
0.00197239
0.0121158
-0.0387499
0.0409383
-0.0717942
0.0586702
-0.0690337
0.144492
-0.145765
0.00280069
-0.0865081
0.0204583
-0.0678813
0.00521658
-0.0246947
-0.000861928
0.020064
-0.00746738
0.0641092
-0.0193939
0.0832475
-0.0134848
0.131775
-0.0830117
0.0143571
-0.0180509
0.0463651
-0.00990151
0.02387
-0.00233328
0.000711335
0.00218672
-0.0226726
0.0109707
-0.0417027
0.0194658
-0.0199884
0.074271
-0.0814683
-0.0251533
-0.046181
0.00805103
-0.0317163
0.000235897
-0.0117534
-0.00161058
0.0076437
-0.00366
0.0289549
-0.00814279
0.0427148
0.014558
0.0717212
-0.0486257
-0.0111313
-0.010224
0.024389
-0.00238015
0.0106331
-0.0010003
-0.000565514
-0.000599853
-0.0117159
0.00247234
-0.0220212
0.00987584
0.00451166
0.0422243
-0.0502747
-0.0354142
-0.0317603
8.49118e-06
-0.0172589
-0.00328551
-0.00708433
-0.00170301
0.00336614
-6.34665e-05
0.0152005
-0.000439865
0.0280881
0.0257523
0.0430843
SCALARS Mach float 1
LOOKUP_TABLE default
0.31072
0.313393
0.316964
0.320013
0.321776
0.322727
0.323032
0.323208
0.323035
0.322733
0.321787
0.320035
0.317015
0.313496
0.310876
0.304749
0.304421
0.304151
0.303997
0.304129
0.304261
0.304444
0.304445
0.304446
0.304264
0.304133
0.304001
0.304154
0.304419
0.304735
0.309936
0.312987
0.316919
0.320289
0.322137
0.323174
0.323448
0.323674
0.32345
0.323179
0.322146
0.32031
0.31697
0.313098
0.31011
0.307263
0.30602
0.304701
0.303487
0.303053
0.302703
0.302754
0.30259
0.302754
0.302705
0.303052
0.303485
0.304696
0.306001
0.307215
0.3088
0.312453
0.316846
0.320725
0.322665
0.323878
0.324094
0.324425
0.324096
0.323882
0.322676
0.320748
0.316903
0.312573
0.309002
0.308915
0.306837
0.304858
0.302892
0.302259
0.301668
0.301712
0.301449
0.301713
0.301671
0.302258
0.30289
0.304849
0.30681
0.308835
0.307453
0.31194
0.316729
0.321281
0.32325
0.324714
0.324857
0.325332
0.32486
0.324717
0.323262
0.321307
0.316792
0.312069
0.307691
0.310034
0.307054
0.304682
0.302196
0.301575
0.301109
0.301103
0.300988
0.301106
0.30112
0.30158
0.302202
0.304678
0.307038
0.309925
0.305579
0.3113
0.316439
0.321916
0.324019
0.325764
0.326033
0.326543
0.326038
0.325769
0.324036
0.321948
0.316516
0.311433
0.305868
0.307501
0.305054
0.302863
0.3019
0.301718
0.302936
0.302678
0.303542
0.302688
0.302965
0.301744
0.30194
0.30288
0.305092
0.307372
0.300701
0.308632
0.315674
0.322601
0.326314
0.328229
0.329839
0.329649
0.329847
0.32824
0.32634
0.322646
0.315776
0.308766
0.301069
0.272359
0.29755
0.296642
0.308811
0.310309
0.31748
0.317287
0.320267
0.317313
0.317533
0.310387
0.30892
0.296748
0.29777
0.272242
0.281768
0.29825
0.324973
0.33026
0.341905
0.340644
0.347021
0.343086
0.347027
0.340673
0.341921
0.330349
0.325056
0.298474
0.282104
0.443236
0.414005
0.424163
0.406965
0.415922
0.401658
0.410706
0.399595
0.410712
0.401596
0.415947
0.406828
0.424177
0.413825
0.444633
0.453963
0.426816
0.423725
0.406547
0.409744
0.396154
0.402499
0.392657
0.40254
0.396138
0.409865
0.406529
0.423951
0.427116
0.455561
0.514137
0.477153
0.477569
0.452428
0.459177
0.439903
0.449904
0.435706
0.449981
0.439969
0.45944
0.452606
0.478062
0.477845
0.515985
0.39402
0.390532
0.387196
0.384637
0.384855
0.380532
0.382344
0.378711
0.382422
0.380527
0.385099
0.384645
0.387685
0.391043
0.39681
0.300325
0.341992
0.333459
0.354925
0.351824
0.362886
0.3587
0.36485
0.358671
0.362795
0.351757
0.35469
0.333232
0.342115
0.303894
0.231816
0.281725
0.287927
0.308308
0.311197
0.321391
0.31974
0.324711
0.319653
0.321314
0.310922
0.308071
0.287373
0.282279
0.234805
0.311709
0.327547
0.331242
0.338972
0.339383
0.34457
0.342146
0.345721
0.342136
0.344584
0.339364
0.338921
0.331202
0.328465
0.314999
0.273243
0.28907
0.294841
0.303452
0.305244
0.31061
0.309247
0.312299
0.309218
0.310591
0.305151
0.303316
0.294746
0.290039
0.276358
0.309991
0.322021
0.327992
0.333457
0.33502
0.338125
0.337208
0.338985
0.337209
0.338143
0.335005
0.333372
0.328028
0.323128
0.313066
0.282479
0.293392
0.300107
0.305659
0.307649
0.310611
0.31015
0.311616
0.310147
0.310614
0.307605
0.305538
0.300165
0.294556
0.285428
0.307528
0.317481
0.324619
0.329572
0.331734
0.333978
0.333912
0.334806
0.333918
0.333991
0.331704
0.32946
0.324726
0.318721
0.310437
0.286829
0.295877
0.303247
0.308219
0.310527
0.312601
0.312736
0.313456
0.312741
0.312606
0.310477
0.308094
0.30339
0.297154
0.289624
0.305245
0.31385
0.321514
0.326457
0.328924
0.330768
0.331114
0.331609
0.331124
0.330775
0.328873
0.326332
0.321693
0.315182
0.308023
0.290056
0.297962
0.305604
0.310565
0.313084
0.3148
0.315232
0.315637
0.315241
0.3148
0.313016
0.310437
0.305816
0.299305
0.292722
0.303159
0.310833
0.318678
0.323771
0.326423
0.328073
0.328607
0.32893
0.328618
0.328072
0.326349
0.323645
0.318924
0.312226
0.305829
0.292836
0.299945
0.307627
0.312704
0.315364
0.316916
0.317482
0.317755
0.317492
0.316908
0.315278
0.31258
0.307899
0.301328
0.295394
0.301251
0.308235
0.316065
0.321328
0.324109
0.325655
0.326264
0.326512
0.326273
0.325642
0.324012
0.321203
0.316369
0.309661
0.303823
