# vtk DataFile Version 3.0
Structured Grid Example
ASCII
DATASET STRUCTURED_GRID
DIMENSIONS 30 60 1
POINTS 1800 FLOAT
0.0416666 0.0166667 0
0.0416664 0.05 0
0.0416662 0.0833333 0
0.041666 0.116667 0
0.0416658 0.15 0
0.0416656 0.183333 0
0.0416654 0.216667 0
0.0416653 0.25 0
0.0416651 0.283333 0
0.041665 0.316667 0
0.0416649 0.35 0
0.0416648 0.383333 0
0.0416648 0.416667 0
0.0416647 0.45 0
0.0416647 0.483333 0
0.0416647 0.516667 0
0.0416647 0.55 0
0.0416648 0.583333 0
0.0416648 0.616667 0
0.0416649 0.65 0
0.041665 0.683333 0
0.0416651 0.716667 0
0.0416653 0.75 0
0.0416654 0.783333 0
0.0416656 0.816667 0
0.0416658 0.85 0
0.041666 0.883333 0
0.0416662 0.916667 0
0.0416664 0.95 0
0.0416666 0.983333 0
0.125 0.0166667 0
0.124999 0.05 0
0.124998 0.0833334 0
0.124998 0.116667 0
0.124997 0.15 0
0.124997 0.183333 0
0.124996 0.216667 0
0.124996 0.25 0
0.124995 0.283333 0
0.124995 0.316667 0
0.124995 0.35 0
0.124994 0.383333 0
0.124994 0.416667 0
0.124994 0.45 0
0.124994 0.483333 0
0.124994 0.516667 0
0.124994 0.55 0
0.124994 0.583333 0
0.124994 0.616667 0
0.124995 0.65 0
0.124995 0.683333 0
0.124995 0.716667 0
0.124996 0.75 0
0.124996 0.783333 0
0.124997 0.816667 0
0.124997 0.85 0
0.124998 0.883333 0
0.124998 0.916667 0
0.124999 0.95 0
0.125 0.983333 0
0.208333 0.0166667 0
0.208332 0.0500001 0
0.208331 0.0833334 0
0.20833 0.116667 0
0.208329 0.15 0
0.208328 0.183334 0
0.208327 0.216667 0
0.208326 0.25 0
0.208325 0.283334 0
0.208325 0.316667 0
0.208324 0.35 0
0.208324 0.383333 0
0.208323 0.416667 0
0.208323 0.45 0
0.208323 0.483333 0
0.208323 0.516667 0
0.208323 0.55 0
0.208323 0.583333 0
0.208324 0.616667 0
0.208324 0.65 0
0.208325 0.683333 0
0.208325 0.716666 0
0.208326 0.75 0
0.208327 0.783333 0
0.208328 0.816666 0
0.208329 0.85 0
0.20833 0.883333 0
0.208331 0.916667 0
0.208332 0.95 0
0.208333 0.983333 0
0.291666 0.0166667 0
0.291664 0.0500001 0
0.291663 0.0833335 0
0.291661 0.116667 0
0.29166 0.15 0
0.291658 0.183334 0
0.291657 0.216667 0
0.291656 0.25 0
0.291655 0.283334 0
0.291654 0.316667 0
0.291653 0.35 0
0.291652 0.383334 0
0.291652 0.416667 0
0.291651 0.45 0
0.291651 0.483333 0
0.291651 0.516667 0
0.291651 0.55 0
0.291652 0.583333 0
0.291652 0.616666 0
0.291653 0.65 0
0.291654 0.683333 0
0.291655 0.716666 0
0.291656 0.75 0
0.291657 0.783333 0
0.291658 0.816666 0
0.29166 0.85 0
0.291661 0.883333 0
0.291663 0.916666 0
0.291664 0.95 0
0.291666 0.983333 0
0.374999 0.0166667 0
0.374997 0.0500002 0
0.374994 0.0833337 0
0.374992 0.116667 0
0.37499 0.150001 0
0.374988 0.183334 0
0.374986 0.216667 0
0.374985 0.250001 0
0.374983 0.283334 0
0.374982 0.316667 0
0.37498 0.350001 0
0.37498 0.383334 0
0.374979 0.416667 0
0.374978 0.45 0
0.374978 0.483333 0
0.374978 0.516667 0
0.374978 0.55 0
0.374979 0.583333 0
0.37498 0.616666 0
0.37498 0.649999 0
0.374982 0.683333 0
0.374983 0.716666 0
0.374985 0.749999 0
0.374986 0.783333 0
0.374988 0.816666 0
0.37499 0.849999 0
0.374992 0.883333 0
0.374994 0.916666 0
0.374997 0.95 0
0.374999 0.983333 0
0.458332 0.0166668 0
0.458329 0.0500003 0
0.458326 0.0833339 0
0.458323 0.116667 0
0.45832 0.150001 0
0.458317 0.183334 0
0.458315 0.216668 0
0.458312 0.250001 0
0.45831 0.283334 0
0.458308 0.316668 0
0.458307 0.350001 0
0.458306 0.383334 0
0.458305 0.416667 0
0.458304 0.45 0
0.458304 0.483333 0
0.458304 0.516667 0
0.458304 0.55 0
0.458305 0.583333 0
0.458306 0.616666 0
0.458307 0.649999 0
0.458308 0.683332 0
0.45831 0.716666 0
0.458312 0.749999 0
0.458315 0.783332 0
0.458317 0.816666 0
0.45832 0.849999 0
0.458323 0.883333 0
0.458326 0.916666 0
0.458329 0.95 0
0.458332 0.983333 0
0.541665 0.0166669 0
0.54166 0.0500006 0
0.541656 0.0833342 0
0.541653 0.116668 0
0.541649 0.150001 0
0.541645 0.183335 0
0.541642 0.216668 0
0.541639 0.250002 0
0.541636 0.283335 0
0.541634 0.316668 0
0.541632 0.350001 0
0.54163 0.383335 0
0.541629 0.416668 0
0.541628 0.450001 0
0.541627 0.483334 0
0.541627 0.516666 0
0.541628 0.549999 0
0.541629 0.583332 0
0.54163 0.616665 0
0.541632 0.649999 0
0.541634 0.683332 0
0.541636 0.716665 0
0.541639 0.749998 0
0.541642 0.783332 0
0.541645 0.816665 0
0.541649 0.849999 0
0.541653 0.883332 0
0.541656 0.916666 0
0.54166 0.949999 0
0.541665 0.983333 0
0.624997 0.016667 0
0.624992 0.0500009 0
0.624987 0.0833349 0
0.624981 0.116669 0
0.624976 0.150002 0
0.624972 0.183336 0
0.624967 0.21667 0
0.624963 0.250003 0
0.62496 0.283336 0
0.624956 0.316669 0
0.624954 0.350002 0
0.624952 0.383335 0
0.62495 0.416668 0
0.624949 0.450001 0
0.624948 0.483334 0
0.624948 0.516666 0
0.624949 0.549999 0
0.62495 0.583332 0
0.624952 0.616665 0
0.624954 0.649998 0
0.624956 0.683331 0
0.62496 0.716664 0
0.624963 0.749997 0
0.624967 0.78333 0
0.624972 0.816664 0
0.624976 0.849998 0
0.624981 0.883331 0
0.624987 0.916665 0
0.624992 0.949999 0
0.624997 0.983333 0
0.70833 0.0166672 0
0.708323 0.0500016 0
0.708316 0.0833359 0
0.708309 0.11667 0
0.708302 0.150004 0
0.708296 0.183338 0
0.708291 0.216672 0
0.708285 0.250005 0
0.708281 0.283338 0
0.708276 0.316671 0
0.708273 0.350004 0
0.70827 0.383337 0
0.708268 0.416669 0
0.708266 0.450002 0
0.708265 0.483334 0
0.708265 0.516666 0
0.708266 0.549998 0
0.708268 0.583331 0
0.70827 0.616663 0
0.708273 0.649996 0
0.708276 0.683329 0
0.708281 0.716662 0
0.708285 0.749995 0
0.708291 0.783328 0
0.708296 0.816662 0
0.708302 0.849996 0
0.708309 0.88333 0
0.708316 0.916664 0
0.708323 0.949998 0
0.70833 0.983333 0
0.791662 0.0166676 0
0.791653 0.0500026 0
0.791644 0.0833376 0
0.791635 0.116672 0
0.791626 0.150007 0
0.791618 0.183341 0
0.791611 0.216675 0
0.791604 0.250009 0
0.791598 0.283342 0
0.791592 0.316674 0
0.791588 0.350007 0
0.791584 0.383339 0
0.791581 0.416671 0
0.791579 0.450003 0
0.791578 0.483334 0
0.791578 0.516666 0
0.791579 0.549997 0
0.791581 0.583329 0
0.791584 0.616661 0
0.791588 0.649993 0
0.791592 0.683326 0
0.791598 0.716658 0
0.791604 0.749991 0
0.791611 0.783325 0
0.791618 0.816659 0
0.791626 0.849993 0
0.791635 0.883328 0
0.791644 0.916662 0
0.791653 0.949997 0
0.791662 0.983332 0
0.874994 0.0166682 0
0.874982 0.0500044 0
0.87497 0.0833405 0
0.874959 0.116676 0
0.874948 0.150012 0
0.874937 0.183346 0
0.874927 0.216681 0
0.874918 0.250014 0
0.87491 0.283347 0
0.874903 0.31668 0
0.874897 0.350012 0
0.874892 0.383343 0
0.874889 0.416674 0
0.874886 0.450004 0
0.874885 0.483335 0
0.874885 0.516665 0
0.874886 0.549996 0
0.874889 0.583326 0
0.874892 0.616657 0
0.874897 0.649988 0
0.874903 0.68332 0
0.87491 0.716653 0
0.874918 0.749986 0
0.874927 0.783319 0
0.874937 0.816654 0
0.874948 0.849988 0
0.874959 0.883324 0
0.87497 0.916659 0
0.874982 0.949996 0
0.874994 0.983332 0
0.958325 0.0166692 0
0.95831 0.0500074 0
0.958294 0.0833454 0
0.958279 0.116683 0
0.958265 0.150019 0
0.958251 0.183355 0
0.958239 0.21669 0
0.958227 0.250024 0
0.958217 0.283357 0
0.958207 0.316689 0
0.9582 0.350019 0
0.958193 0.383349 0
0.958189 0.416679 0
0.958185 0.450007 0
0.958184 0.483336 0
0.958184 0.516664 0
0.958185 0.549993 0
0.958189 0.583321 0
0.958193 0.616651 0
0.9582 0.649981 0
0.958207 0.683311 0
0.958217 0.716643 0
0.958227 0.749976 0
0.958239 0.78331 0
0.958251 0.816645 0
0.958265 0.849981 0
0.958279 0.883317 0
0.958294 0.916655 0
0.95831 0.949993 0
0.958325 0.983331 0
1.04166 0.0166709 0
1.04164 0.0500125 0
1.04162 0.0833535 0
1.0416 0.116694 0
1.04158 0.150033 0
1.04156 0.18337 0
1.04154 0.216706 0
1.04153 0.25004 0
1.04152 0.283373 0
1.0415 0.316703 0
1.04149 0.350033 0
1.04148 0.38336 0
1.04148 0.416687 0
1.04147 0.450012 0
1.04147 0.483338 0
1.04147 0.516662 0
1.04147 0.549988 0
1.04148 0.583313 0
1.04148 0.61664 0
1.04149 0.649967 0
1.0415 0.683297 0
1.04152 0.716627 0
1.04153 0.74996 0
1.04154 0.783294 0
1.04156 0.81663 0
1.04158 0.849967 0
1.0416 0.883306 0
1.04162 0.916646 0
1.04164 0.949988 0
1.04166 0.983329 0
1.12499 0.0166738 0
1.12496 0.050021 0
1.12493 0.0833672 0
1.12491 0.116712 0
1.12488 0.150055 0
1.12486 0.183395 0
1.12484 0.216733 0
1.12482 0.250068 0
1.1248 0.283399 0
1.12479 0.316728 0
1.12477 0.350054 0
1.12476 0.383378 0
1.12476 0.4167 0
1.12475 0.450021 0
1.12475 0.48334 0
1.12475 0.51666 0
1.12475 0.549979 0
1.12476 0.5833 0
1.12476 0.616622 0
1.12477 0.649946 0
1.12479 0.683272 0
1.1248 0.716601 0
1.12482 0.749932 0
1.12484 0.783267 0
1.12486 0.816605 0
1.12488 0.849945 0
1.12491 0.883288 0
1.12493 0.916633 0
1.12496 0.949979 0
1.12499 0.983326 0
1.20832 0.0166786 0
1.20828 0.0500352 0
1.20825 0.0833903 0
1.20821 0.116743 0
1.20818 0.150092 0
1.20815 0.183437 0
1.20813 0.216778 0
1.2081 0.250113 0
1.20808 0.283444 0
1.20806 0.31677 0
1.20804 0.350091 0
1.20803 0.383409 0
1.20802 0.416723 0
1.20801 0.450035 0
1.20801 0.483345 0
1.20801 0.516655 0
1.20801 0.549965 0
1.20802 0.583277 0
1.20803 0.616591 0
1.20804 0.649909 0
1.20806 0.68323 0
1.20808 0.716556 0
1.2081 0.749887 0
1.20813 0.783222 0
1.20815 0.816563 0
1.20818 0.849908 0
1.20821 0.883257 0
1.20825 0.91661 0
1.20828 0.949965 0
1.20832 0.983321 0
1.29164 0.0166867 0
1.2916 0.0500593 0
1.29155 0.0834291 0
1.29151 0.116795 0
1.29147 0.150154 0
1.29143 0.183507 0
1.2914 0.216853 0
1.29136 0.25019 0
1.29133 0.283518 0
1.29131 0.316839 0
1.29129 0.350152 0
1.29127 0.383459 0
1.29126 0.416761 0
1.29125 0.450058 0
1.29124 0.483353 0
1.29124 0.516647 0
1.29125 0.549942 0
1.29126 0.583239 0
1.29127 0.616541 0
1.29129 0.649848 0
1.29131 0.683161 0
1.29133 0.716482 0
1.29136 0.74981 0
1.2914 0.783147 0
1.29143 0.816493 0
1.29147 0.849846 0
1.29151 0.883205 0
1.29155 0.916571 0
1.2916 0.949941 0
1.29164 0.983313 0
1.37497 0.0167005 0
1.37491 0.0501 0
1.37485 0.0834948 0
1.3748 0.116882 0
1.37474 0.15026 0
1.37469 0.183626 0
1.37465 0.216979 0
1.3746 0.250318 0
1.37457 0.283643 0
1.37453 0.316955 0
1.37451 0.350254 0
1.37449 0.383543 0
1.37447 0.416823 0
1.37446 0.450097 0
1.37445 0.483366 0
1.37445 0.516634 0
1.37446 0.549903 0
1.37447 0.583177 0
1.37449 0.616457 0
1.37451 0.649746 0
1.37453 0.683045 0
1.37457 0.716357 0
1.3746 0.749682 0
1.37465 0.783021 0
1.37469 0.816374 0
1.37474 0.84974 0
1.3748 0.883118 0
1.37485 0.916505 0
1.37491 0.9499 0
1.37497 0.983299 0
1.45829 0.0167241 0
[...]
POINT_DATA 1800
SCALARS pressure float 1
LOOKUP_TABLE default
84728.1
84728.1
84728.1
84728.1
84728.1
84728.1
84728.1
84728.1
84728.1
84728
84728
84728
84728
84728
84728
84728
84728
84728
84728
84728
84728
84728
84728
84728.1
84728.1
84728.1
84728.1
84728.1
84728.1
84728.1
84709.1
84709.1
84709.1
84709.1
84709
84709
84709
84709
84709
84709
84708.9
84708.9
84708.9
84708.9
84708.9
84708.9
84708.9
84708.9
84708.9
84708.9
84708.9
84709
84709
84709
84709
84709
84709
84709
84709.1
84709.1
84740.7
84740.7
84740.7
84740.7
84740.7
84740.7
84740.7
84740.7
84740.7
84740.6
84740.6
84740.6
84740.6
84740.6
84740.6
84740.6
84740.6
84740.6
84740.6
84740.6
84740.6
84740.6
84740.6
84740.6
84740.6
84740.6
84740.6
84740.7
84740.7
84740.7
84697.4
84697.4
84697.4
84697.4
84697.3
84697.3
84697.3
84697.3
84697.3
84697.3
84697.3
84697.3
84697.2
84697.2
84697.2
84697.2
84697.2
84697.2
84697.2
84697.2
84697.3
84697.3
84697.3
84697.3
84697.3
84697.3
84697.3
84697.3
84697.3
84697.3
84751.6
84751.6
84751.6
84751.6
84751.6
84751.6
84751.6
84751.6
84751.5
84751.5
84751.5
84751.5
84751.5
84751.5
84751.5
84751.5
84751.5
84751.5
84751.5
84751.5
84751.5
84751.5
84751.5
84751.5
84751.5
84751.5
84751.5
84751.5
84751.5
84751.5
84686.7
84686.7
84686.7
84686.7
84686.7
84686.6
84686.6
84686.6
84686.5
84686.5
84686.5
84686.5
84686.4
84686.4
84686.4
84686.4
84686.4
84686.4
84686.4
84686.5
84686.5
84686.5
84686.5
84686.5
84686.6
84686.6
84686.6
84686.6
84686.6
84686.6
84762.8
84762.7
84762.7
84762.7
84762.7
84762.7
84762.7
84762.7
84762.7
84762.6
84762.6
84762.6
84762.6
84762.6
84762.6
84762.6
84762.6
84762.6
84762.6
84762.6
84762.6
84762.6
84762.6
84762.6
84762.6
84762.6
84762.7
84762.7
84762.7
84762.7
84675.1
84675.1
84675
84675
84674.9
84674.8
84674.8
84674.7
84674.6
84674.5
84674.5
84674.4
84674.3
84674.3
84674.3
84674.3
84674.3
84674.3
84674.3
84674.4
84674.5
84674.5
84674.6
84674.7
84674.7
84674.8
84674.9
84674.9
84674.9
84675
84776
84776
84775.9
84775.9
84775.9
84775.8
84775.8
84775.7
84775.6
84775.6
84775.5
84775.5
84775.4
84775.4
84775.4
84775.4
84775.4
84775.4
84775.4
84775.5
84775.5
84775.5
84775.6
84775.6
84775.7
84775.7
84775.8
84775.8
84775.8
84775.8
84661.4
84661.3
84661.3
84661.1
84661
84660.7
84660.5
84660.2
84660
84659.8
84659.6
84659.4
84659.3
84659.1
84659.1
84659.1
84659.1
84659.2
84659.3
84659.5
84659.7
84659.9
84660.1
84660.3
84660.5
84660.7
84660.9
84661
84661.1
84661.2
84792.8
84792.8
84792.7
84792.6
84792.4
84792.3
84792.1
84791.9
84791.7
84791.5
84791.3
84791.2
84791.1
84791
84790.9
84790.9
84790.9
84791
84791.1
84791.2
84791.4
84791.5
84791.7
84791.9
84792.1
84792.2
84792.4
84792.5
84792.5
84792.6
84645.5
84645.3
84645.1
84644.6
84644.1
84643.4
84642.8
84642
84641.4
84640.6
84640.1
84639.5
84639.1
84638.8
84638.6
84638.6
84638.7
84639
84639.3
84639.9
84640.4
84641.1
84641.7
84642.5
84643
84643.8
84644.2
84644.7
84644.9
84645.1
84815.7
84815.5
84815.2
84814.9
84814.4
84813.8
84813.1
84812.6
84811.8
84811.3
84810.6
84810.2
84809.8
84809.5
84809.3
84809.3
84809.4
84809.7
84810
84810.4
84811
84811.5
84812.2
84812.8
84813.4
84813.9
84814.4
84814.8
84815
84815.2
84629.2
84628.5
84627.9
84626.3
84625
84622.8
84621.1
84618.6
84616.9
84614.5
84613
84611.1
84610.1
84609.1
84608.7
84608.6
84609
84609.9
84610.9
84612.6
84614.1
84616.4
84618.1
84620.5
84622.1
84624.3
84625.6
84627.1
84627.7
84628.4
84849.5
84848.8
84848
84846.7
84845
84843.2
84841
84839
84836.6
84834.8
84832.7
84831.3
84829.9
84829.1
84828.5
84828.5
84828.9
84829.7
84831
84832.4
84834.3
84836.1
84838.4
84840.3
84842.5
84844.2
84845.9
84847.2
84848
84848.6
84620.5
84618.3
84616.4
84611.4
84607.6
84600.7
84595.8
84588.1
84582.9
84575.9
84571.4
84566
84562.9
84560
84558.9
84558.8
84559.8
84562.5
84565.5
84570.7
84575.2
84582
84587.2
84594.6
84599.6
84606.4
84610.1
84615.1
84617
84619.1
84907.5
84905.4
84902.6
84898
84892.4
84886.3
84879.2
84872.4
84865.1
84858.8
84852.5
84847.7
84843.4
84840.9
84839.2
84839.3
84840.5
84843.1
84847.1
84851.9
84857.9
84864.2
84871.2
84878
84884.9
84891.1
84896.5
84901.1
84903.8
84906
84647.7
84640.4
84634.7
84618
84606.6
84584.3
84569.7
84546
84531
84509.9
84497.1
84481.3
84472.7
84464.3
84461.3
84461
84464
84472
84480.6
84495.9
84508.7
84529.4
84544.4
84567.7
84582.3
84604.3
84615.8
84632.2
84638
84645.1
85031.1
85022.8
85013.4
84996.3
84978.5
84956.3
84934.4
84911
84889.2
84868.2
84850
84834.3
84822.2
84813.9
84809.5
84809.5
84813.2
84821.7
84833.1
84849
84866.4
84887.7
84908.8
84932.5
84953.7
84976.1
84993.4
85010.7
85019.9
85028.3
84810
84780.5
84762.6
84700.2
84665.7
84590
84547.6
84473.9
84432.1
84370.5
84336
84292.3
84269.8
84247.1
84239.3
84238.9
84246.7
84268.6
84291.1
84334
84368.6
84429.3
84471.2
84544
84586.6
84661.5
84696.2
84758
84776.1
84805.4
85362.7
85321.8
85288.2
85215.5
85158.6
85074.7
85010.4
84929.8
84870
84802.3
84754.9
84706.8
84676.5
84651.7
84640.9
84641.1
84650.6
84675.8
84704.7
84753.3
84799.3
84867.5
84925.7
85007.2
85069.8
85154.6
85209.9
85283.6
85316
85357.5
85508.1
85314.3
85255.3
84975.7
84871.4
84604.9
84488.6
84269.5
84163.7
84000.8
83918.6
83811.7
83760.2
83707.3
83689.8
83689.2
83706.7
83758.5
83810
83915.6
83997.8
84159.2
84265.3
84482.6
84599.3
84864
84968.8
85246.8
85306.1
85499.3
86510.1
86167.6
86030.4
85670.7
85493.1
85176
85008.5
84753
84616
84426.8
84327.3
84203.3
84143.3
84082.2
84061.6
84061.9
84080.6
84142.4
84200.3
84325.3
84421.9
84612.9
84746
85004.2
85166.6
85487.7
85658.9
86023.6
86154.4
86502
88724.2
86733
86520.4
85241.3
84955.1
84147
83886.1
83373.5
83169.4
82848.7
82706.6
82518.7
82435.8
82348.8
82321.5
82321.2
82348.1
82434.6
82517.1
82704
82845.9
83164.8
83369
83878.6
84140.1
84943.4
85230.8
86504
86717.9
88706.1
90035.6
87634.7
86846.3
85479
85090.4
84231.4
83992.4
83442
83281.7
82934.3
82828.3
82623.8
82562.7
82468
82447.5
82448
82466.8
82562.5
82621.5
82827.7
82930
83280.5
83434.4
83990.7
84217.4
85088.1
85452.4
86843.1
87581.2
90029.1
79661.3
80273.7
79467.2
79750.6
79404.7
79502.4
79356.6
79374.3
79315.6
79306.5
79284.9
79272.3
79265.4
79258.2
79256.6
79257.7
79258.6
79268.2
79274.2
79290
79310.3
79323.8
79380.6
79368.9
79512.4
79422
79766.1
79488.7
80298.7
79680.7
78528
79409
78817.7
79277
78927.7
79157.1
78970
79081
78988.5
79041.3
78999.1
79023.7
79006.6
79016.6
79012.4
79012.9
79018
79009
79027.4
79003.6
79048.4
78995.8
79093.3
78980.8
79178.2
78942.8
79313.7
78838.4
79473.4
78553.3
70598.1
72262.7
71823.5
73013.6
72848.5
73694.7
73682.4
74271.7
74327.7
74722.6
74792.9
75035.2
75088.3
75203.2
75223.2
75222.3
75204.6
75087.6
75037.7
74792.2
74727
74326.7
74279.3
73680.8
73707.8
72845.7
73035.3
71819.5
72298
70587.9
67980.4
70131
70002.3
71582.6
71567.7
72712.1
72759.4
73565.2
73636.8
74179.7
74248.5
74582.1
74630.6
74788.2
74806.9
74804.5
74790.5
74627.5
74584.8
74244.3
74183.6
73630.9
73571.3
72751.2
72721.6
71556.2
71596.5
69987
70150
67953.2
63774.8
66259.5
66263.2
68163.2
68248.4
69677.2
69798.4
70839.3
70963.9
71684.8
71789.6
72241.3
72310.9
72526.5
72552.3
72548
72527.6
72302.9
72239.5
71777.2
71680.1
70946.2
70831.3
69774.3
69665.3
68216.6
68146.2
66223
66235
63716
64474.4
66956
66947.3
68894.8
68922
70420.6
70468.5
71581.2
71635.7
72417.6
72466.8
72961.5
72996
73233.2
73247.5
73241.9
73234.5
72985.5
72958.4
72450.6
72409.9
71612.7
71567.7
70437.1
70399.7
68880.2
68864
66893.3
66911.4
64396
66866.2
69043.4
68809.7
70541.4
70370.3
71712.1
71593.9
72595.8
72519.5
73227.2
73182.6
73631.8
73610.6
73825.5
73822.5
73815
73828.7
73598.3
73630.8
73164.5
73221.8
72494.5
72585.4
71560.1
71695.2
70325.7
70516.1
68752.3
69005.9
66783.9
71870.1
73511.6
73003.5
74341.3
73943.1
75005.7
74707.8
75517.6
75305.4
75885.9
75746.3
76118.1
76041.2
76219
76199
76190
76225.6
76028.9
76122.8
75729.5
75889.1
75282.5
75519.4
74677.1
75005.9
73902.4
74339.1
72950.9
73504.3
71796
76774.4
77680.1
76988.6
77687.8
77148
77704
77293.2
77729.5
77429.9
77753.6
77551.6
77764
77650.4
77751.3
77721.1
77709.7
77762.1
77637.4
77775.1
77536
77766.2
77410.4
77744.7
77268.2
77722.8
77115.5
77710.8
76946.1
77705.3
76714.8
81943.9
82213.2
81415.9
81618.4
81032.1
81202.2
80753.9
80896.2
80561.3
80672.2
80440.6
80515.1
80382
80415.5
80378.9
80368.7
80428.4
80373.6
80531.7
80433
80693.9
80553.1
80924.5
80743.4
81239.3
81017
81666.9
81392.5
82275.2
81910.7
87208.6
85351.6
84643.4
83695.6
83166.6
82681
82271.3
82028.5
81722.7
81607
81396.6
81344
81224
81200
81168.2
81157.4
81213.7
81215.2
81361.6
81389.4
81630.5
81717.3
82060.5
82268.2
82725.5
83167.6
83758.6
84647.9
85447.5
87262.2
90966.2
88561.3
88104.1
86757.9
86276.3
85463.5
85043.6
84541.8
84214
83907.3
83677.1
83500.1
83366.8
83283.2
83245.4
83238.8
83295.8
83366.3
83519
83683.2
83933.4
84228.4
84576.3
85069.2
85507.6
86318.1
86812
88168.6
88622.9
91105.5
84345.3
84344.7
84225.8
84102.9
83956
83808.1
83656.8
83526.2
83393.1
83293.9
83193
83126.7
83066.4
83030.9
83015.2
83008.5
83038.8
83061
83136
83188.6
83304.2
83389.3
83536.7
83653.1
83817.2
83951
84106.9
84216.9
84338.5
84333
86531.8
86291.2
86161
85835.5
85668
85374
85205.1
84971.6
84824.9
84655
84544.3
84433.7
84367
84310.9
84292.2
84288
84318.5
84366.2
84444.4
84547
84668.8
84831.4
84988
85215.5
85392.1
85682.2
85853.1
86176.7
86305.6
86548.3
84357.7
84344.6
84322.6
84278.8
84244.9
84186.9
84145.4
84086.4
84044.8
83994.1
83959.8
83922.6
83901.3
83880.2
83875.5
83871.7
83884.6
83898
83927.3
83957.1
83998.8
84042.5
84090.6
84143.2
84189.9
84242.7
84279.7
84319.9
84343.1
84355.5
85225.7
85198.3
85164.3
85097.4
85047.2
84966.1
84910.5
84832.4
84780.7
84715.7
84675
84628.6
84603.6
84578.6
84572.2
84569.6
84582.5
84602.4
84633.7
84675.1
84721.6
84782.1
84838.6
84913
84972.1
85050.3
85102.2
85167
85201.1
85227.8
84444.8
84440.2
84432.9
84417.3
84405.9
84383.9
84370.1
84346.1
84332.3
84310.4
84299
84282.1
84275.2
84265.3
84264.3
84262.2
84267.6
84273.4
84284.6
84297.5
84312.8
84331.1
84348.3
84369.2
84385.5
84405.2
84418.2
84432.3
84440.5
84444.7
84807.3
84802.1
84792.9
84776.7
84762.4
84739.9
84723.2
84699
84682.9
84660.9
84648
84631.3
84623.4
84613.9
84612.3
84610.7
84615.8
84622.4
84633.5
84647.4
84663.3
84682.7
84701.2
84723.3
84741.8
84762.6
84778
84792.9
84802.5
84807.2
84501.3
84499.9
84497.3
84492
84487.9
84480
84475.2
84466.1
84461.4
84452.8
84449.1
84442.1
84440.1
84435.8
84435.9
84434.7
84437.1
84439
84443.5
84448.2
84454.1
84460.8
84467.3
84474.7
84480.9
84487.6
84492.6
84497.1
84500.3
84501.4
84658.7
84657.4
84654.7
84650.2
84646.1
84639.4
84634.5
84626.9
84622.2
84615
84611.2
84605.5
84603.3
84599.8
84599.6
84598.8
84600.7
84602.6
84606.5
84610.6
84616
84621.8
84627.8
84634.2
84640
84645.8
84650.5
84654.4
84657.3
84658.4
84532.5
84532.1
84531.2
84529.4
84528.1
84525.2
84523.7
84520.4
84518.9
84515.6
84514.5
84511.8
84511.3
84509.5
84509.7
84509.1
84510.2
84510.7
84512.5
84514
84516.3
84518.5
84521
84523.4
84525.8
84527.9
84529.8
84531.2
84532.3
84532.7
84602.5
84602.1
84601.3
84599.9
84598.7
84596.6
84595.2
84592.7
84591.4
84589
84588
84586
84585.5
84584.1
84584.3
84583.8
84584.6
84585
84586.4
84587.6
84589.4
84591
84593.1
84594.9
84596.8
84598.4
84600
84601
84602
84602.2
84548.8
84548.7
84548.4
84547.8
84547.3
84546.3
84545.9
84544.7
84544.2
84543
84542.7
84541.7
84541.6
84540.9
84541.1
84540.8
84541.3
84541.3
84542.1
84542.5
84543.4
84544
84545
84545.7
84546.6
84547.2
84548
84548.4
84548.8
84548.9
84580.2
84580.1
84579.9
84579.4
84579.1
84578.3
84578
84577.1
84576.8
84575.9
84575.7
84575
84574.9
84574.4
84574.5
84574.3
84574.6
84574.7
84575.2
84575.5
84576.1
84576.6
84577.3
84577.8
84578.4
84578.9
84579.4
84579.7
84580
84580.1
84556.9
84556.9
84556.8
84556.6
84556.5
84556.1
84556
84555.5
84555.4
84555
84554.9
84554.5
84554.6
84554.3
84554.4
84554.2
84554.5
84554.4
84554.7
84554.8
84555.2
84555.3
84555.7
84555.9
84556.2
84556.4
84556.7
84556.8
84556.9
84556.9
84571.1
84571.1
84571
84570.8
84570.8
84570.5
84570.4
84570.1
84570
84569.7
84569.7
84569.4
84569.5
84569.2
84569.3
84569.2
84569.4
84569.3
84569.5
84569.6
84569.8
84569.9
84570.2
84570.3
84570.5
84570.6
84570.8
84570.9
84571
84571
84560.9
84560.8
84560.8
84560.7
84560.7
84560.6
84560.6
84560.4
84560.4
84560.2
84560.2
84560.1
84560.1
84560
84560.1
84559.9
84560.1
84560
84560.2
84560.1
84560.3
84560.3
84560.5
84560.5
84560.6
84560.7
84560.8
84560.8
84560.9
84560.9
84567.3
84567.3
84567.3
84567.2
84567.2
84567.1
84567.1
84567
84567
84566.9
84566.9
84566.8
84566.8
84566.7
84566.8
84566.7
84566.8
84566.7
84566.8
84566.8
84566.9
84566.9
84567
84567
84567.1
84567.1
84567.2
84567.2
84567.3
84567.3
84562.7
84562.7
84562.7
84562.7
84562.7
84562.6
84562.6
84562.6
84562.6
84562.5
84562.5
84562.4
84562.5
84562.4
84562.5
84562.4
84562.5
84562.4
84562.5
84562.5
84562.5
84562.5
84562.6
84562.6
84562.7
84562.6
84562.7
84562.7
84562.7
84562.7
84565.7
84565.7
84565.7
84565.7
84565.7
84565.7
84565.7
84565.6
84565.6
84565.6
84565.6
84565.5
84565.6
84565.5
84565.6
84565.5
84565.6
84565.5
84565.6
84565.5
84565.6
84565.6
84565.6
84565.6
84565.7
84565.7
84565.7
84565.7
84565.7
84565.7
84563.6
84563.6
84563.6
84563.6
84563.6
84563.5
84563.6
84563.5
84563.5
84563.5
84563.5
84563.5
84563.5
84563.5
84563.5
84563.5
84563.5
84563.5
84563.5
84563.5
84563.5
84563.5
84563.5
84563.5
84563.6
84563.5
84563.6
84563.6
84563.6
84563.6
84565.1
84565.1
84565.1
84565.1
84565.1
84565
84565.1
84565
84565
84565
84565
84565
84565
84565
84565
84565
84565
84565
84565
84565
84565
84565
84565
84565
84565
84565
84565.1
84565.1
84565.1
84565.1
84564
84564
84564
84564
84564
84564
84564
84563.9
84564
84563.9
84563.9
84563.9
84563.9
84563.9
84563.9
84563.9
84563.9
84563.9
84563.9
84563.9
84563.9
84563.9
84564
84563.9
84564
84564
84564
84564
84564
84564
84564.8
84564.8
84564.8
84564.8
84564.8
84564.8
84564.8
84564.8
84564.8
84564.8
84564.8
84564.8
84564.8
84564.8
84564.8
84564.8
84564.8
84564.8
84564.8
84564.8
84564.8
84564.8
84564.8
84564.8
84564.8
84564.8
84564.8
84564.8
84564.8
84564.8
84564.1
84564.1
84564.1
84564.1
84564.1
84564.1
84564.1
84564.1
84564.1
84564.1
84564.1
84564.1
84564.1
84564.1
84564.1
84564.1
84564.1
84564.1
84564.1
84564.1
84564.1
84564.1
84564.1
84564.1
84564.1
84564.1
84564.1
84564.1
84564.1
84564.1
SCALARS density float 1
LOOKUP_TABLE default
1.21368
1.21368
1.21368
1.21368
1.21368
1.21368
1.21368
1.21368
1.21368
1.21368
1.21368
1.21368
1.21368
1.21368
1.21368
1.21368
1.21368
1.21368
1.21368
1.21368
1.21368
1.21368
1.21368
1.21368
1.21368
1.21368
1.21368
1.21368
1.21368
1.21368
1.21348
1.21348
1.21348
1.21348
1.21348
1.21348
1.21348
1.21348
1.21348
1.21348
1.21348
1.21348
1.21348
1.21348
1.21348
1.21348
1.21348
1.21348
1.21348
1.21348
1.21348
1.21348
1.21348
1.21348
1.21348
1.21348
1.21348
1.21348
1.21348
1.21348
1.2138
1.2138
1.2138
1.2138
1.2138
1.2138
1.2138
1.2138
1.2138
1.2138
1.2138
1.2138
1.2138
1.2138
1.2138
1.2138
1.2138
1.2138
1.2138
1.2138
1.2138
1.2138
1.2138
1.2138
1.2138
1.2138
1.2138
1.2138
1.2138
1.2138
1.21336
1.21336
1.21336
1.21336
1.21336
1.21336
1.21336
1.21336
1.21336
1.21336
1.21336
1.21336
1.21336
1.21336
1.21336
1.21336
1.21336
1.21336
1.21336
1.21336
1.21336
1.21336
1.21336
1.21336
1.21336
1.21336
1.21336
1.21336
1.21336
1.21336
1.21391
1.21391
1.21391
1.21391
1.21391
1.21391
1.21391
1.21392
1.21392
1.21392
1.21392
1.21392
1.21392
1.21392
1.21392
1.21392
1.21392
1.21392
1.21392
1.21392
1.21392
1.21391
1.21391
1.21391
1.21391
1.21391
1.21391
1.21391
1.21391
1.21391
1.21325
1.21325
1.21325
1.21325
1.21325
1.21325
1.21325
1.21325
1.21325
1.21325
1.21325
1.21325
1.21325
1.21325
1.21325
1.21325
1.21325
1.21325
1.21325
1.21325
1.21325
1.21325
1.21325
1.21325
1.21325
1.21325
1.21325
1.21325
1.21325
1.21325
1.21402
1.21402
1.21403
1.21403
1.21403
1.21403
1.21403
1.21403
1.21403
1.21403
1.21403
1.21403
1.21403
1.21403
1.21403
1.21403
1.21403
1.21403
1.21403
1.21403
1.21403
1.21403
1.21403
1.21403
1.21403
1.21403
1.21403
1.21402
1.21402
1.21402
1.21314
1.21314
1.21314
1.21314
1.21313
1.21313
1.21313
1.21313
1.21313
1.21313
1.21313
1.21313
1.21313
1.21313
1.21313
1.21313
1.21313
1.21313
1.21313
1.21313
1.21313
1.21313
1.21313
1.21313
1.21313
1.21313
1.21313
1.21314
1.21314
1.21314
1.21415
1.21415
1.21416
1.21416
1.21416
1.21416
1.21416
1.21416
1.21416
1.21416
1.21416
1.21416
1.21416
1.21416
1.21416
1.21416
1.21416
1.21416
1.21416
1.21416
1.21416
1.21416
1.21416
1.21416
1.21416
1.21416
1.21416
1.21415
1.21415
1.21415
1.21301
1.21301
1.213
1.213
1.213
1.21299
1.21299
1.21299
1.21298
1.21298
1.21298
1.21298
1.21298
1.21297
1.21297
1.21297
1.21297
1.21298
1.21298
1.21298
1.21298
1.21298
1.21298
1.21299
1.21299
1.21299
1.213
1.213
1.213
1.21301
1.21431
1.21431
1.21432
1.21432
1.21432
1.21432
1.21432
1.21432
1.21432
1.21432
1.21432
1.21432
1.21432
1.21431
1.21431
1.21431
1.21431
1.21431
1.21432
1.21432
1.21432
1.21432
1.21432
1.21432
1.21432
1.21432
1.21432
1.21432
1.21431
1.21431
1.21287
1.21286
1.21285
1.21284
1.21283
1.21282
1.21282
1.21281
1.2128
1.21279
1.21279
1.21278
1.21278
1.21277
1.21277
1.21277
1.21277
1.21277
1.21278
1.21278
1.21279
1.2128
1.2128
1.21281
1.21282
1.21283
1.21284
1.21285
1.21286
1.21287
1.21451
1.21452
1.21453
1.21453
1.21453
1.21453
1.21453
1.21453
1.21452
1.21451
1.21451
1.2145
1.2145
1.2145
1.2145
1.2145
1.2145
1.2145
1.2145
1.21451
1.21451
1.21452
1.21452
1.21453
1.21453
1.21453
1.21453
1.21452
1.21451
1.2145
1.21276
1.21273
1.21271
1.21268
1.21266
1.21263
1.21261
1.21258
1.21256
1.21254
1.21252
1.2125
1.21249
1.21248
1.21247
1.21247
1.21248
1.21249
1.2125
1.21252
1.21253
1.21256
1.21257
1.2126
1.21262
1.21265
1.21267
1.2127
1.21273
1.21275
1.21477
1.21479
1.21481
1.21482
1.21482
1.21481
1.21479
1.21478
1.21476
1.21474
1.21472
1.21471
1.21469
1.21468
1.21468
1.21468
1.21468
1.21469
1.2147
1.21472
1.21473
1.21475
1.21477
1.21479
1.2148
1.21481
1.21482
1.21481
1.21478
1.21476
1.21278
1.21273
1.21266
1.21258
1.21252
1.21244
1.21238
1.2123
1.21224
1.21217
1.21212
1.21206
1.21203
1.212
1.21199
1.21199
1.212
1.21203
1.21206
1.21211
1.21216
1.21223
1.21229
1.21237
1.21243
1.21251
1.21257
1.21265
1.21271
1.21277
1.21519
1.21522
1.21527
1.21527
1.21524
1.2152
1.21514
1.21508
1.21501
1.21495
1.21489
1.21484
1.2148
1.21478
1.21476
1.21476
1.21477
1.2148
1.21484
1.21488
1.21494
1.215
1.21506
1.21513
1.21518
1.21523
1.21525
1.21525
1.21521
1.21517
1.21333
1.21317
1.21301
1.21277
1.21261
1.21236
1.21219
1.21193
1.21177
1.21155
1.21141
1.21125
1.21116
1.21107
1.21104
1.21103
1.21107
1.21115
1.21124
1.2114
1.21153
1.21175
1.21192
1.21217
1.21234
1.21259
1.21274
1.21298
1.21315
1.21331
1.21604
1.2161
1.21616
1.21609
1.21597
1.21579
1.2156
1.21538
1.21517
1.21497
1.21479
1.21464
1.21452
1.21444
1.21439
1.21439
1.21443
1.21451
1.21463
1.21478
1.21495
1.21516
1.21536
1.21558
1.21576
1.21595
1.21607
1.21614
1.21606
1.21601
1.21561
1.21509
1.21467
1.21389
1.21344
1.21261
1.21213
1.21134
1.21089
1.21024
1.20987
1.20941
1.20918
1.20894
1.20886
1.20885
1.20894
1.20916
1.2094
1.20985
1.21022
1.21086
1.21131
1.21209
1.21257
1.2134
1.21384
1.21462
1.21505
1.21557
1.21844
1.2184
1.21843
1.21792
1.21748
1.21672
1.21614
1.21537
1.2148
1.21414
1.21368
1.2132
1.2129
1.21266
1.21255
1.21255
1.21265
1.2129
1.21318
1.21366
1.21411
1.21478
1.21533
1.21611
1.21668
1.21744
1.21787
1.21839
1.21834
1.21838
1.22425
1.2217
1.22055
1.21737
1.21608
1.2132
1.21189
1.20956
1.20841
1.20668
1.2058
1.20467
1.20412
1.20356
1.20338
1.20337
1.20356
1.2041
1.20465
1.20577
1.20665
1.20836
1.20951
1.21183
1.21314
1.216
1.21729
1.22045
1.22162
1.22418
1.22766
1.22526
1.22474
1.22163
1.22018
1.21719
1.21567
1.21319
1.21189
1.21002
1.20906
1.20783
1.20724
1.20663
1.20643
1.20643
1.20662
1.20723
1.2078
1.20904
1.20998
1.21186
1.21312
1.21563
1.2171
1.22013
1.22152
1.22469
1.22512
1.22755
1.26098
1.23891
1.23549
1.22157
1.21806
1.20932
1.20634
1.20083
1.19857
1.19513
1.19357
1.19156
1.19066
1.18973
1.18944
1.18944
1.18973
1.19065
1.19155
1.19355
1.1951
1.19852
1.20078
1.20626
1.20924
1.21793
1.22144
1.23529
1.23875
1.26085
1.26052
1.23916
1.23177
1.21893
1.21537
1.20706
1.20485
1.19943
1.19793
1.19447
1.19347
1.19142
1.19083
1.18988
1.18968
1.18969
1.18987
1.19083
1.1914
1.19346
1.19443
1.19792
1.19936
1.20484
1.20692
1.21536
1.21868
1.23177
1.23861
1.26025
1.1623
1.1692
1.16016
1.1631
1.15936