# vtk DataFile Version 3.0
Structured Grid Example
ASCII
DATASET STRUCTURED_GRID
DIMENSIONS 30 60 1
POINTS 1800 FLOAT
0.0416666 0.0166667 0
0.0416664 0.05 0
0.0416662 0.0833333 0
0.041666 0.116667 0
0.0416658 0.15 0
0.0416656 0.183333 0
0.0416654 0.216667 0
0.0416653 0.25 0
0.0416651 0.283333 0
0.041665 0.316667 0
0.0416649 0.35 0
0.0416648 0.383333 0
0.0416648 0.416667 0
0.0416647 0.45 0
0.0416647 0.483333 0
0.0416647 0.516667 0
0.0416647 0.55 0
0.0416648 0.583333 0
0.0416648 0.616667 0
0.0416649 0.65 0
0.041665 0.683333 0
0.0416651 0.716667 0
0.0416653 0.75 0
0.0416654 0.783333 0
0.0416656 0.816667 0
0.0416658 0.85 0
0.041666 0.883333 0
0.0416662 0.916667 0
0.0416664 0.95 0
0.0416666 0.983333 0
0.125 0.0166667 0
0.124999 0.05 0
0.124998 0.0833334 0
0.124998 0.116667 0
0.124997 0.15 0
0.124997 0.183333 0
0.124996 0.216667 0
0.124996 0.25 0
0.124995 0.283333 0
0.124995 0.316667 0
0.124995 0.35 0
0.124994 0.383333 0
0.124994 0.416667 0
0.124994 0.45 0
0.124994 0.483333 0
0.124994 0.516667 0
0.124994 0.55 0
0.124994 0.583333 0
0.124994 0.616667 0
0.124995 0.65 0
0.124995 0.683333 0
0.124995 0.716667 0
0.124996 0.75 0
0.124996 0.783333 0
0.124997 0.816667 0
0.124997 0.85 0
0.124998 0.883333 0
0.124998 0.916667 0
0.124999 0.95 0
0.125 0.983333 0
0.208333 0.0166667 0
0.208332 0.0500001 0
0.208331 0.0833334 0
0.20833 0.116667 0
0.208329 0.15 0
0.208328 0.183334 0
0.208327 0.216667 0
0.208326 0.25 0
0.208325 0.283334 0
0.208325 0.316667 0
0.208324 0.35 0
0.208324 0.383333 0
0.208323 0.416667 0
0.208323 0.45 0
0.208323 0.483333 0
0.208323 0.516667 0
0.208323 0.55 0
0.208323 0.583333 0
0.208324 0.616667 0
0.208324 0.65 0
0.208325 0.683333 0
0.208325 0.716666 0
0.208326 0.75 0
0.208327 0.783333 0
0.208328 0.816666 0
0.208329 0.85 0
0.20833 0.883333 0
0.208331 0.916667 0
0.208332 0.95 0
0.208333 0.983333 0
0.291666 0.0166667 0
0.291664 0.0500001 0
0.291663 0.0833335 0
0.291661 0.116667 0
0.29166 0.15 0
0.291658 0.183334 0
0.291657 0.216667 0
0.291656 0.25 0
0.291655 0.283334 0
0.291654 0.316667 0
0.291653 0.35 0
0.291652 0.383334 0
0.291652 0.416667 0
0.291651 0.45 0
0.291651 0.483333 0
0.291651 0.516667 0
0.291651 0.55 0
0.291652 0.583333 0
0.291652 0.616666 0
0.291653 0.65 0
0.291654 0.683333 0
0.291655 0.716666 0
0.291656 0.75 0
0.291657 0.783333 0
0.291658 0.816666 0
0.29166 0.85 0
0.291661 0.883333 0
0.291663 0.916666 0
0.291664 0.95 0
0.291666 0.983333 0
0.374999 0.0166667 0
0.374997 0.0500002 0
0.374994 0.0833337 0
0.374992 0.116667 0
0.37499 0.150001 0
0.374988 0.183334 0
0.374986 0.216667 0
0.374985 0.250001 0
0.374983 0.283334 0
0.374982 0.316667 0
0.37498 0.350001 0
0.37498 0.383334 0
0.374979 0.416667 0
0.374978 0.45 0
0.374978 0.483333 0
0.374978 0.516667 0
0.374978 0.55 0
0.374979 0.583333 0
0.37498 0.616666 0
0.37498 0.649999 0
0.374982 0.683333 0
0.374983 0.716666 0
0.374985 0.749999 0
0.374986 0.783333 0
0.374988 0.816666 0
0.37499 0.849999 0
0.374992 0.883333 0
0.374994 0.916666 0
0.374997 0.95 0
0.374999 0.983333 0
0.458332 0.0166668 0
0.458329 0.0500003 0
0.458326 0.0833339 0
0.458323 0.116667 0
0.45832 0.150001 0
0.458317 0.183334 0
0.458315 0.216668 0
0.458312 0.250001 0
0.45831 0.283334 0
0.458308 0.316668 0
0.458307 0.350001 0
0.458306 0.383334 0
0.458305 0.416667 0
0.458304 0.45 0
0.458304 0.483333 0
0.458304 0.516667 0
0.458304 0.55 0
0.458305 0.583333 0
0.458306 0.616666 0
0.458307 0.649999 0
0.458308 0.683332 0
0.45831 0.716666 0
0.458312 0.749999 0
0.458315 0.783332 0
0.458317 0.816666 0
0.45832 0.849999 0
0.458323 0.883333 0
0.458326 0.916666 0
0.458329 0.95 0
0.458332 0.983333 0
0.541665 0.0166669 0
0.54166 0.0500006 0
0.541656 0.0833342 0
0.541653 0.116668 0
0.541649 0.150001 0
0.541645 0.183335 0
0.541642 0.216668 0
0.541639 0.250002 0
0.541636 0.283335 0
0.541634 0.316668 0
0.541632 0.350001 0
0.54163 0.383335 0
0.541629 0.416668 0
0.541628 0.450001 0
0.541627 0.483334 0
0.541627 0.516666 0
0.541628 0.549999 0
0.541629 0.583332 0
0.54163 0.616665 0
0.541632 0.649999 0
0.541634 0.683332 0
0.541636 0.716665 0
0.541639 0.749998 0
0.541642 0.783332 0
0.541645 0.816665 0
0.541649 0.849999 0
0.541653 0.883332 0
0.541656 0.916666 0
0.54166 0.949999 0
0.541665 0.983333 0
0.624997 0.016667 0
0.624992 0.0500009 0
0.624987 0.0833349 0
0.624981 0.116669 0
0.624976 0.150002 0
0.624972 0.183336 0
0.624967 0.21667 0
0.624963 0.250003 0
0.62496 0.283336 0
0.624956 0.316669 0
0.624954 0.350002 0
0.624952 0.383335 0
0.62495 0.416668 0
0.624949 0.450001 0
0.624948 0.483334 0
0.624948 0.516666 0
0.624949 0.549999 0
0.62495 0.583332 0
0.624952 0.616665 0
0.624954 0.649998 0
0.624956 0.683331 0
0.62496 0.716664 0
0.624963 0.749997 0
0.624967 0.78333 0
0.624972 0.816664 0
0.624976 0.849998 0
0.624981 0.883331 0
0.624987 0.916665 0
0.624992 0.949999 0
0.624997 0.983333 0
0.70833 0.0166672 0
0.708323 0.0500016 0
0.708316 0.0833359 0
0.708309 0.11667 0
0.708302 0.150004 0
0.708296 0.183338 0
0.708291 0.216672 0
0.708285 0.250005 0
0.708281 0.283338 0
0.708276 0.316671 0
0.708273 0.350004 0
0.70827 0.383337 0
0.708268 0.416669 0
0.708266 0.450002 0
0.708265 0.483334 0
0.708265 0.516666 0
0.708266 0.549998 0
0.708268 0.583331 0
0.70827 0.616663 0
0.708273 0.649996 0
0.708276 0.683329 0
0.708281 0.716662 0
0.708285 0.749995 0
0.708291 0.783328 0
0.708296 0.816662 0
0.708302 0.849996 0
0.708309 0.88333 0
0.708316 0.916664 0
0.708323 0.949998 0
0.70833 0.983333 0
0.791662 0.0166676 0
0.791653 0.0500026 0
0.791644 0.0833376 0
0.791635 0.116672 0
0.791626 0.150007 0
0.791618 0.183341 0
0.791611 0.216675 0
0.791604 0.250009 0
0.791598 0.283342 0
0.791592 0.316674 0
0.791588 0.350007 0
0.791584 0.383339 0
0.791581 0.416671 0
0.791579 0.450003 0
0.791578 0.483334 0
0.791578 0.516666 0
0.791579 0.549997 0
0.791581 0.583329 0
0.791584 0.616661 0
0.791588 0.649993 0
0.791592 0.683326 0
0.791598 0.716658 0
0.791604 0.749991 0
0.791611 0.783325 0
0.791618 0.816659 0
0.791626 0.849993 0
0.791635 0.883328 0
0.791644 0.916662 0
0.791653 0.949997 0
0.791662 0.983332 0
0.874994 0.0166682 0
0.874982 0.0500044 0
0.87497 0.0833405 0
0.874959 0.116676 0
0.874948 0.150012 0
0.874937 0.183346 0
0.874927 0.216681 0
0.874918 0.250014 0
0.87491 0.283347 0
0.874903 0.31668 0
0.874897 0.350012 0
0.874892 0.383343 0
0.874889 0.416674 0
0.874886 0.450004 0
0.874885 0.483335 0
0.874885 0.516665 0
0.874886 0.549996 0
0.874889 0.583326 0
0.874892 0.616657 0
0.874897 0.649988 0
0.874903 0.68332 0
0.87491 0.716653 0
0.874918 0.749986 0
0.874927 0.783319 0
0.874937 0.816654 0
0.874948 0.849988 0
0.874959 0.883324 0
0.87497 0.916659 0
0.874982 0.949996 0
0.874994 0.983332 0
0.958325 0.0166692 0
0.95831 0.0500074 0
0.958294 0.0833454 0
0.958279 0.116683 0
0.958265 0.150019 0
0.958251 0.183355 0
0.958239 0.21669 0
0.958227 0.250024 0
0.958217 0.283357 0
0.958207 0.316689 0
0.9582 0.350019 0
0.958193 0.383349 0
0.958189 0.416679 0
0.958185 0.450007 0
0.958184 0.483336 0
0.958184 0.516664 0
0.958185 0.549993 0
0.958189 0.583321 0
0.958193 0.616651 0
0.9582 0.649981 0
0.958207 0.683311 0
0.958217 0.716643 0
0.958227 0.749976 0
0.958239 0.78331 0
0.958251 0.816645 0
0.958265 0.849981 0
0.958279 0.883317 0
0.958294 0.916655 0
0.95831 0.949993 0
0.958325 0.983331 0
1.04166 0.0166709 0
1.04164 0.0500125 0
1.04162 0.0833535 0
1.0416 0.116694 0
1.04158 0.150033 0
1.04156 0.18337 0
1.04154 0.216706 0
1.04153 0.25004 0
1.04152 0.283373 0
1.0415 0.316703 0
1.04149 0.350033 0
1.04148 0.38336 0
1.04148 0.416687 0
1.04147 0.450012 0
1.04147 0.483338 0
1.04147 0.516662 0
1.04147 0.549988 0
1.04148 0.583313 0
1.04148 0.61664 0
1.04149 0.649967 0
1.0415 0.683297 0
1.04152 0.716627 0
1.04153 0.74996 0
1.04154 0.783294 0
1.04156 0.81663 0
1.04158 0.849967 0
1.0416 0.883306 0
1.04162 0.916646 0
1.04164 0.949988 0
1.04166 0.983329 0
1.12499 0.0166738 0
1.12496 0.050021 0
1.12493 0.0833672 0
1.12491 0.116712 0
1.12488 0.150055 0
1.12486 0.183395 0
1.12484 0.216733 0
1.12482 0.250068 0
1.1248 0.283399 0
1.12479 0.316728 0
1.12477 0.350054 0
1.12476 0.383378 0
1.12476 0.4167 0
1.12475 0.450021 0
1.12475 0.48334 0
1.12475 0.51666 0
1.12475 0.549979 0
1.12476 0.5833 0
1.12476 0.616622 0
1.12477 0.649946 0
1.12479 0.683272 0
1.1248 0.716601 0
1.12482 0.749932 0
1.12484 0.783267 0
1.12486 0.816605 0
1.12488 0.849945 0
1.12491 0.883288 0
1.12493 0.916633 0
1.12496 0.949979 0
1.12499 0.983326 0
1.20832 0.0166786 0
1.20828 0.0500352 0
1.20825 0.0833903 0
1.20821 0.116743 0
1.20818 0.150092 0
1.20815 0.183437 0
1.20813 0.216778 0
1.2081 0.250113 0
1.20808 0.283444 0
1.20806 0.31677 0
1.20804 0.350091 0
1.20803 0.383409 0
1.20802 0.416723 0
1.20801 0.450035 0
1.20801 0.483345 0
1.20801 0.516655 0
1.20801 0.549965 0
1.20802 0.583277 0
1.20803 0.616591 0
1.20804 0.649909 0
1.20806 0.68323 0
1.20808 0.716556 0
1.2081 0.749887 0
1.20813 0.783222 0
1.20815 0.816563 0
1.20818 0.849908 0
1.20821 0.883257 0
1.20825 0.91661 0
1.20828 0.949965 0
1.20832 0.983321 0
1.29164 0.0166867 0
1.2916 0.0500593 0
1.29155 0.0834291 0
1.29151 0.116795 0
1.29147 0.150154 0
1.29143 0.183507 0
1.2914 0.216853 0
1.29136 0.25019 0
1.29133 0.283518 0
1.29131 0.316839 0
1.29129 0.350152 0
1.29127 0.383459 0
1.29126 0.416761 0
1.29125 0.450058 0
1.29124 0.483353 0
1.29124 0.516647 0
1.29125 0.549942 0
1.29126 0.583239 0
1.29127 0.616541 0
1.29129 0.649848 0
1.29131 0.683161 0
1.29133 0.716482 0
1.29136 0.74981 0
1.2914 0.783147 0
1.29143 0.816493 0
1.29147 0.849846 0
1.29151 0.883205 0
1.29155 0.916571 0
1.2916 0.949941 0
1.29164 0.983313 0
1.37497 0.0167005 0
1.37491 0.0501 0
1.37485 0.0834948 0
1.3748 0.116882 0
1.37474 0.15026 0
1.37469 0.183626 0
1.37465 0.216979 0
1.3746 0.250318 0
1.37457 0.283643 0
1.37453 0.316955 0
1.37451 0.350254 0
1.37449 0.383543 0
1.37447 0.416823 0
1.37446 0.450097 0
1.37445 0.483366 0
1.37445 0.516634 0
1.37446 0.549903 0
1.37447 0.583177 0
1.37449 0.616457 0
1.37451 0.649746 0
1.37453 0.683045 0
1.37457 0.716357 0
1.3746 0.749682 0
1.37465 0.783021 0
1.37469 0.816374 0
1.37474 0.84974 0
1.3748 0.883118 0
1.37485 0.916505 0
1.37491 0.9499 0
1.37497 0.983299 0
1.45829 0.0167241 0
[...]
POINT_DATA 1800
SCALARS pressure float 1
LOOKUP_TABLE default
94290.1
94290.1
94290.1
94290.1
94290
94290
94290
94290
94290
94290
94290
94290
94290
94290
94290
94290
94290
94290
94290
94290
94290.1
94290
94290
94290
94290
94290
94290
94290
94290
94290
94311.8
94311.8
94311.8
94311.9
94311.9
94311.9
94311.9
94311.9
94311.9
94311.9
94311.9
94311.9
94311.9
94311.9
94311.8
94311.8
94311.8
94311.8
94311.8
94311.8
94311.8
94311.8
94311.8
94311.8
94311.8
94311.8
94311.9
94311.9
94311.9
94311.9
94302
94302
94302
94302.1
94302.1
94302.2
94302.2
94302.3
94302.3
94302.3
94302.3
94302.3
94302.2
94302.2
94302.1
94302.1
94302
94302
94302
94302
94302
94302
94302
94302
94302.1
94302.1
94302.2
94302.2
94302.3
94302.3
94300.9
94300.9
94300.9
94301
94301.1
94301.1
94301.2
94301.3
94301.3
94301.3
94301.3
94301.3
94301.2
94301.2
94301.1
94301
94300.9
94300.9
94300.8
94300.8
94300.8
94300.8
94300.9
94300.9
94301
94301.1
94301.2
94301.3
94301.3
94301.3
94311.2
94311.3
94311.3
94311.4
94311.5
94311.6
94311.7
94311.8
94311.9
94311.9
94311.9
94311.9
94311.8
94311.7
94311.6
94311.4
94311.3
94311.2
94311.2
94311.1
94311.1
94311.2
94311.3
94311.4
94311.5
94311.6
94311.7
94311.8
94311.9
94311.9
94292.1
94292.2
94292.2
94292.3
94292.5
94292.6
94292.7
94292.8
94292.9
94292.9
94292.9
94292.8
94292.7
94292.6
94292.4
94292.3
94292.2
94292
94292
94291.9
94291.9
94292
94292.1
94292.2
94292.4
94292.5
94292.7
94292.8
94292.9
94292.9
94319.5
94319.6
94319.7
94319.8
94319.9
94320
94320.2
94320.3
94320.3
94320.4
94320.3
94320.3
94320.1
94320
94319.8
94319.7
94319.5
94319.4
94319.3
94319.3
94319.3
94319.4
94319.5
94319.6
94319.8
94320
94320.1
94320.3
94320.4
94320.4
94283.8
94283.8
94283.9
94284
94284.1
94284.2
94284.3
94284.4
94284.4
94284.4
94284.4
94284.3
94284.2
94284
94283.8
94283.7
94283.5
94283.4
94283.3
94283.3
94283.3
94283.4
94283.6
94283.7
94283.9
94284.1
94284.3
94284.4
94284.5
94284.6
94328.8
94328.8
94328.9
94329
94329
94329.1
94329.2
94329.2
94329.2
94329.2
94329.1
94329
94328.9
94328.8
94328.6
94328.5
94328.3
94328.2
94328.2
94328.2
94328.2
94328.4
94328.5
94328.7
94328.8
94329.1
94329.2
94329.4
94329.5
94329.5
94274.6
94274.5
94274.6
94274.5
94274.6
94274.5
94274.5
94274.5
94274.4
94274.3
94274.2
94274.1
94273.9
94273.8
94273.6
94273.5
94273.4
94273.4
94273.4
94273.4
94273.5
94273.7
94273.8
94274
94274.2
94274.4
94274.6
94274.8
94274.9
94274.9
94340.7
94340.7
94340.7
94340.6
94340.5
94340.3
94340.2
94340
94339.9
94339.7
94339.5
94339.3
94339.2
94339.1
94338.9
94338.9
94338.8
94338.9
94338.9
94339.1
94339.2
94339.4
94339.6
94339.8
94340.1
94340.3
94340.5
94340.6
94340.7
94340.8
94263.6
94263.4
94263.3
94263.1
94262.8
94262.5
94262.2
94261.8
94261.5
94261.1
94260.8
94260.5
94260.3
94260.1
94260
94260
94260.1
94260.2
94260.3
94260.6
94260.8
94261.2
94261.5
94261.9
94262.1
94262.5
94262.7
94262.9
94263
94263.1
94357.3
94357
94356.9
94356.4
94356
94355.4
94354.8
94354.2
94353.6
94353
94352.5
94352.1
94351.8
94351.6
94351.5
94351.6
94351.7
94352
94352.3
94352.7
94353.1
94353.7
94354.1
94354.6
94355
94355.5
94355.8
94356.1
94356.3
94356.4
94250.6
94250.2
94249.9
94249
94248.3
94247.1
94246.2
94245
94244
94242.9
94242.2
94241.4
94240.9
94240.5
94240.4
94240.5
94240.8
94241.2
94241.8
94242.6
94243.3
94244.2
94245
94245.9
94246.6
94247.5
94247.9
94248.6
94248.8
94249.1
94382
94381.3
94380.8
94379.5
94378.3
94376.6
94375
94373.2
94371.6
94369.9
94368.6
94367.5
94366.7
94366.1
94365.9
94366
94366.4
94367.2
94368.1
94369.3
94370.5
94372
94373.3
94374.9
94376
94377.4
94378.2
94379.2
94379.6
94380.1
94237.6
94236.4
94235.5
94233.1
94231.2
94228
94225.6
94222.2
94219.7
94216.7
94214.7
94212.4
94211.2
94210.1
94209.7
94209.9
94210.5
94211.7
94213.1
94215.3
94217.3
94220.1
94222.2
94225.2
94227.1
94229.9
94231.3
94233.3
94234
94235
94422.7
94421
94419.6
94415.9
94412.8
94407.9
94403.9
94398.7
94394.6
94389.9
94386.5
94383.1
94380.9
94379.2
94378.5
94378.7
94379.6
94381.6
94383.8
94387.3
94390.5
94395
94398.7
94403.5
94406.9
94411.4
94413.9
94417.2
94418.4
94420
94233.3
94229.7
94227.6
94220.2
94215.5
94206
94199.9
94190.2
94184
94175.5
94170.3
94164.1
94160.8
94157.6
94156.5
94156.6
94157.9
94161.2
94164.6
94170.7
94175.7
94183.8
94189.7
94198.8
94204.4
94213.3
94217.5
94224.4
94226.3
94229.7
94500.7
94494.9
94491
94479.4
94471
94456.4
94445.8
94431
94420.4
94407.5
94398.7
94389.3
94383.6
94378.8
94376.8
94377
94378.9
94384
94389.6
94399
94407.4
94420.2
94430.1
94444.7
94454.6
94468.8
94476.5
94487.8
94491.3
94497
94270.8
94257.1
94251.2
94225.6
94213
94183.4
94167.7
94139.8
94124.4
94101.5
94088.8
94072.9
94064.7
94056.5
94053.8
94053.7
94056.5
94064.6
94072.7
94088.3
94100.7
94123.1
94138.1
94165.3
94180.5
94209.4
94221.5
94246.6
94252.1
94265.7
94680.9
94655.6
94643
94600.9
94576.7
94530.6
94502.5
94460.2
94433.9
94399.8
94379
94355.4
94342.2
94330.2
94325.6
94325.7
94329.9
94342
94354.6
94378.4
94398.3
94432.6
94457.7
94500.3
94527
94573.4
94596.2
94638.8
94650.4
94676
94481
94400.9
94383.6
94278.2
94243.9
94147.8
94109
94032.4
93997.3
93941.6
93914.6
93878.8
93862
93844.4
93838.7
93838.5
93844
93861.2
93877.7
93913
93939.6
93994.5
94029.1
94104.8
94143
94238.2
94271.9
94376.6
94393.2
94473.5
95226.7
95041.3
94990.9
94814.8
94743
94598.8
94530.1
94420.4
94364.4
94286.4
94246
94196.5
94172.1
94148.2
94139.8
94139.9
94147.2
94171.5
94194.6
94244.7
94283.3
94362.2
94415.7
94527
94592.1
94738.8
94806.1
94985.8
95031.3
95220.7
95504.6
94783.4
94730.5
94287.4
94198.4
93933.4
93852.7
93692.7
93631.4
93535.6
93494.1
93439.8
93416.2
93391.5
93383.7
93383.5
93390.9
93415.1
93438.4
93492.1
93533
93628
93688.7
93847.2
93927.1
94189.9
94277.6
94718.4
94768.4
95489.2
96555.5
95644.5
95285
94789.8
94608.8
94312.2
94200.9
94019
93946.4
93835.6
93789.2
93725.8
93699.7
93670.8
93662.1
93662.2
93670
93699.1
93724
93788.1
93832.4
93944.8
94013.3
94199.1
94302.1
94606.9
94770.7
95283.5
95606.5
96554.8
92413.8
92723.3
92411
92577
92447.4
92531.3
92477.4
92521.3
92499.9
92524.2
92516.6
92529.9
92527.8
92533.8
92533.6
92533.5
92534.1
92528.1
92530.6
92517.5
92525.6
92502.1
92524.1
92481.5
92536.4
92454
92586.3
92419.8
92740.6
92419.8
92432.2
92804.9
92596.5
92803.3
92675.2
92791.3
92718.1
92784.1
92744.4
92782.3
92761.9
92782.8
92773.6
92782.8
92780.7
92780
92784
92773.5
92785.1
92762.3
92786.3
92745.6
92791.4
92720.5
92804.7
92679
92827.9
92602.3
92849.9
92436.3
89729.7
90384.5
90241.5
90709.5
90656
90989.8
90984.8
91217
91233.3
91388.5
91409.4
91504.2
91520.3
91564.6
91571.4
91569.9
91566.2
91518.5
91506.2
91407.1
91391.7
91230.2
91222.6
90980.7
90999.5
90650.4
90726.2
90234.1
90412
89714.6
89465.3
90251.7
90223.3
90785.1
90785.4
91183.3
91198.1
91472.4
91492.2
91673.8
91692.4
91802.1
91815.5
91866.3
91872.4
91870.2
91868.6
91812.9
91804.8
91689
91677.4
91487.6
91477.9
91191.6
91191.6
90776.4
90797.6
90211.6
90268.8
89442.2
88041
88940.4
88938.7
89600.3
89624.6
90106.7
90143.5
90485.6
90524
90756.3
90789.1
90932.2
90954.5
91021.5
91030.8
91027.7
91023.2
90949.6
90932.7
90781.9
90755.7
90514
90484
90129.7
90103.8
89606.2
89595.5
88915.2
88930.8
88002.6
88665.7
89533
89549.8
90196.4
90223.1
90696.6
90727.5
91064.1
91093.7
91322.1
91346.5
91487
91503.7
91569.1
91576.6
91573.2
91571.2
91498.5
91487.9
91339.2
91321.7
91083.3
91061.9
90712.9
90691.4
90203
90186.7
89522.9
89513.7
88621.1
88820.7
89598.8
89557
90141.3
90125.6
90553.9
90555
90860.5
90869.9
91078
91089.5
91217.9
91227.6
91287.2
91292.8
91288.5
91289.7
91221
91218.8
91079.9
91077.2
90856.2
90857.8
90536
90548.4
90099.7
90131.7
89522.1
89580.3
88766.2
90515.7
91076.9
90986.5
91411
91357.1
91669.6
91640.1
91863.8
91849.1
92001.6
91995.6
92089.5
92088.7
92131.6
92134.3
92129.7
92135.8
92082.9
92093.6
91987.8
92006
91838
91868.6
91624.2
91674.8
91334.3
91416.3
90954.1
91079.1
90464.9
91585.9
91891.6
91734.3
91947.5
91849.7
92005.7
91945.6
92060.6
92024.7
92106.1
92086.3
92137.5
92129.2
92151.9
92152.8
92147.2
92157.2
92122.5
92143.3
92077.6
92113.1
92012.9
92069.9
91929
92018.5
91826.2
91965.2
91700.6
91913.4
91536.4
93671.9
93662.8
93494.3
93460.2
93348.6
93324.5
93243.3
93230.4
93171.7
93166.1
93127.1
93124.4
93103.5
93100.8
93097.5
93092.9
93107.4
93100.2
93133.8
93124.3
93179.3
93168.6
93248.9
93238.5
93350.4
93340.1
93496.6
93478.3
93714
93648.8
94985.5
94256.9
94142.5
93739.8
93651.5
93436.8
93370
93254.5
93206
93144.4
93112.5
93080.3
93063.7
93048
93046.1
93041.2
93054.2
93059.5
93088.6
93108.5
93156.1
93202
93271.6
93365.9
93462.7
93647.1
93778.9
94137.3
94326.9
95009.7
96845.3
95876
95706.6
95145
94986.2
94647.8
94519.6
94310.1
94215.8
94087.1
94024.1
93949.3
93914.5
93879
93870.5
93867.8
93885.2
93915.2
93959.4
94028.5
94102
94224.8
94330.7
94535
94675.2
95010.8
95179
95745.3
95920
96937.1
94007.2
94027.4
94001.2
93950.7
93918.9
93853
93820.4
93761.3
93733
93687.8
93666.9
93636.6
93624.9
93608.6
93606.8
93603.7
93612.2
93622.1
93641
93664.3
93692.9
93730.1
93767.1
93816.9
93858.7
93913.6
93953.8
93992.8
94025.7
93997.4
95108.4
95015.8
94960
94822.2
94755.7
94628.3
94566.1
94463.7
94412.2
94337.2
94299.7
94250.9
94229
94204.4
94198.8
94197.2
94208.1
94229.6
94257
94302.7
94345.7
94417.6
94474.6
94574.2
94641.2
94766.4
94835.7
94972.6
95029.7
95124.5
94068
94066.2
94060.5
94044.2
94036.1
94012.3
94002.5
93977.6
93967.7
93945.9
93937.8
93921.6
93916.8
93907.7
93907.1
93905.3
93909.3
93915
93923.3
93935.9
93947.5
93965.7
93979
94000.3
94013.2
94033.4
94043.8
94057.3
94064.5
94065.3
94586.3
94575.1
94559.1
94528
94505.1
94466.8
94442.7
94405.6
94384
94353.1
94336.5
94314.5
94304.5
94292.8
94290.3
94289.3
94294.6
94304.5
94317.3
94337.5
94356.9
94386.1
94410.2
94445.8
94472
94508.9
94533
94563.1
94579.8
94590.8
94130.2
94129.1
94126.6
94120.8
94117.3
94108.3
94104.4
94094.4
94090.5
94081.3
94078
94070.8
94068.9
94064.6
94064.5
94063.6
94065.4
94067.8
94071.4
94076.8
94081.7
94089.3
94094.8
94103.3
94108.6
94116.3
94120.7
94125.7
94128.9
94129.6
94394.3
94392.1
94387.2
94379
94371.6
94360
94351.6
94339.1
94331.1
94319.9
94313.5
94305.1
94301.2
94296.4
94295.5
94295
94297.2
94300.9
94306.1
94313.6
94321.3
94331.7
94340.8
94352.5
94361.9
94372.9
94380.9
94388.7
94393.8
94395.9
94173.4
94173.1
94172
94169.9
94168.4
94165.1
94163.4
94159.5
94157.8
94154.1
94152.8
94149.8
94149
94147.2
94147.1
94146.7
94147.5
94148.4
94149.9
94152.1
94154.2
94157.2
94159.6
94162.8
94165.2
94168
94170.1
94171.8
94173.2
94173.5
94313.2
94312.6
94311
94308.6
94306.1
94302.4
94299.5
94295.4
94292.6
94288.7
94286.4
94283.4
94282
94280.2
94279.9
94279.6
94280.5
94281.8
94283.7
94286.3
94289.2
94292.7
94296
94299.8
94303.1
94306.5
94309.2
94311.5
94313.2
94313.7
94200.7
94200.6
94200.2
94199.4
94198.8
94197.6
94196.8
94195.4
94194.6
94193.2
94192.7
94191.5
94191.2
94190.4
94190.4
94190.2
94190.6
94190.9
94191.6
94192.4
94193.3
94194.4
94195.4
94196.6
94197.6
94198.6
94199.5
94200.1
94200.7
94200.8
94276
94275.8
94275.3
94274.5
94273.6
94272.4
94271.4
94270
94269
94267.7
94266.9
94265.8
94265.3
94264.7
94264.6
94264.5
94264.9
94265.3
94266
94266.9
94267.9
94269.1
94270.2
94271.5
94272.6
94273.7
94274.6
94275.3
94275.9
94276
94217.1
94217.1
94216.9
94216.6
94216.3
94215.8
94215.5
94214.9
94214.6
94214.1
94213.8
94213.4
94213.3
94213
94213.1
94213
94213.2
94213.3
94213.6
94213.9
94214.3
94214.7
94215.1
94215.5
94215.9
94216.2
94216.5
94216.7
94216.9
94216.9
94258.1
94258
94257.8
94257.5
94257.1
94256.7
94256.3
94255.8
94255.4
94254.9
94254.7
94254.3
94254.2
94254
94254
94254
94254.2
94254.3
94254.6
94254.9
94255.3
94255.6
94256
94256.4
94256.8
94257.1
94257.4
94257.5
94257.7
94257.8
94226.6
94226.6
94226.5
94226.3
94226.2
94226
94225.8
94225.5
94225.4
94225.2
94225.1
94224.9
94224.9
94224.9
94224.9
94224.9
94225.1
94225.1
94225.3
94225.4
94225.6
94225.7
94225.8
94225.9
94226.1
94226.1
94226.2
94226.2
94226.3
94226.3
94249
94249
94248.9
94248.7
94248.6
94248.4
94248.2
94248
94247.8
94247.6
94247.5
94247.4
94247.4
94247.4
94247.4
94247.5
94247.6
94247.7
94247.8
94247.9
94248.1
94248.2
94248.3
94248.4
94248.5
94248.5
94248.6
94248.6
94248.6
94248.6
94231.9
94231.9
94231.9
94231.8
94231.7
94231.5
94231.4
94231.3
94231.2
94231.1
94231.1
94231.1
94231.1
94231.1
94231.2
94231.2
94231.3
94231.4
94231.5
94231.5
94231.6
94231.6
94231.7
94231.7
94231.7
94231.6
94231.6
94231.6
94231.6
94231.6
94244.4
94244.3
94244.3
94244.2
94244.1
94244
94243.9
94243.8
94243.7
94243.6
94243.6
94243.5
94243.6
94243.6
94243.7
94243.7
94243.8
94243.9
94243.9
94244
94244
94244.1
94244.1
94244.1
94244.1
94244
94244
94244
94244
94244
94234.9
94234.8
94234.8
94234.7
94234.7
94234.6
94234.5
94234.5
94234.4
94234.4
94234.4
94234.4
94234.4
94234.4
94234.5
94234.5
94234.6
94234.7
94234.7
94234.7
94234.8
94234.8
94234.8
94234.7
94234.7
94234.7
94234.6
94234.6
94234.6
94234.5
94241.9
94241.9
94241.9
94241.8
94241.8
94241.7
94241.6
94241.6
94241.5
94241.5
94241.5
94241.5
94241.5
94241.5
94241.6
94241.6
94241.7
94241.7
94241.8
94241.8
94241.8
94241.8
94241.8
94241.8
94241.7
94241.7
94241.7
94241.6
94241.6
94241.6
94236.4
94236.4
94236.4
94236.3
94236.3
94236.3
94236.2
94236.2
94236.2
94236.1
94236.1
94236.1
94236.2
94236.2
94236.2
94236.2
94236.3
94236.3
94236.3
94236.3
94236.3
94236.3
94236.3
94236.3
94236.3
94236.3
94236.2
94236.2
94236.2
94236.2
94240.6
94240.6
94240.6
94240.6
94240.6
94240.5
94240.5
94240.5
94240.5
94240.5
94240.5
94240.5
94240.5
94240.5
94240.5
94240.5
94240.5
94240.6
94240.6
94240.6
94240.6
94240.6
94240.6
94240.6
94240.6
94240.5
94240.5
94240.5
94240.5
94240.5
94237.1
94237.1
94237.1
94237.1
94237.1
94237.1
94237.1
94237.1
94237.1
94237.1
94237.1
94237
94237.1
94237.1
94237.1
94237.1
94237.1
94237.1
94237.1
94237.1
94237.1
94237.1
94237.1
94237.1
94237.1
94237.1
94237.1
94237.1
94237.1
94237.1
94240
94240
94240.1
94240.1
94240.1
94240
94240
94240
94240
94240
94240
94240
94240
94240
94240
94240
94240
94240
94240
94240
94240
94240
94240
94240
94240
94240
94240
94240
94240
94240
94237.4
94237.4
94237.5
94237.5
94237.5
94237.5
94237.5
94237.5
94237.5
94237.5
94237.5
94237.5
94237.4
94237.4
94237.4
94237.4
94237.4
94237.4
94237.4
94237.4
94237.4
94237.4
94237.4
94237.4
94237.4
94237.4
94237.4
94237.4
94237.4
94237.4
SCALARS density float 1
LOOKUP_TABLE default
1.21227
1.21227
1.21227
1.21227
1.21227
1.21227
1.21227
1.21227
1.21227
1.21227
1.21227
1.21227
1.21227
1.21227
1.21227
1.21227
1.21227
1.21227
1.21227
1.21227
1.21227
1.21227
1.21227
1.21227
1.21227
1.21227
1.21227
1.21227
1.21227
1.21227
1.21245
1.21245
1.21245
1.21245
1.21245
1.21245
1.21245
1.21245
1.21245
1.21245
1.21245
1.21245
1.21245
1.21245
1.21245
1.21245
1.21245
1.21245
1.21245
1.21245
1.21245
1.21245
1.21245
1.21245
1.21245
1.21245
1.21245
1.21245
1.21245
1.21245
1.21236
1.21236
1.21236
1.21236
1.21236
1.21236
1.21236
1.21236
1.21236
1.21236
1.21236
1.21236
1.21236
1.21236
1.21236
1.21236
1.21236
1.21236
1.21236
1.21236
1.21236
1.21236
1.21236
1.21236
1.21236
1.21236
1.21236
1.21236
1.21236
1.21236
1.21235
1.21235
1.21235
1.21235
1.21235
1.21235
1.21235
1.21235
1.21235
1.21235
1.21235
1.21235
1.21235
1.21235
1.21235
1.21235
1.21235
1.21235
1.21235
1.21235
1.21235
1.21235
1.21235
1.21235
1.21235
1.21235
1.21235
1.21235
1.21235
1.21235
1.21244
1.21244
1.21244
1.21244
1.21244
1.21245
1.21245
1.21245
1.21245
1.21245
1.21245
1.21245
1.21245
1.21245
1.21245
1.21244
1.21244
1.21244
1.21244
1.21244
1.21244
1.21244
1.21244
1.21244
1.21244
1.21245
1.21245
1.21245
1.21245
1.21245
1.21227
1.21227
1.21227
1.21227
1.21227
1.21227
1.21227
1.21227
1.21227
1.21227
1.21227
1.21227
1.21227
1.21227
1.21227
1.21227
1.21227
1.21227
1.21227
1.21227
1.21227
1.21227
1.21227
1.21227
1.21227
1.21227
1.21227
1.21227
1.21227
1.21227
1.21252
1.21252
1.21252
1.21252
1.21252
1.21252
1.21252
1.21253
1.21253
1.21253
1.21253
1.21253
1.21252
1.21252
1.21252
1.21252
1.21252
1.21252
1.21252
1.21252
1.21252
1.21252
1.21252
1.21252
1.21252
1.21252
1.21252
1.21253
1.21253
1.21253
1.21219
1.21219
1.21219
1.21219
1.21219
1.21219
1.21219
1.2122
1.2122
1.2122
1.2122
1.21219
1.21219
1.21219
1.21219
1.21219
1.21219
1.21219
1.21219
1.21219
1.21219
1.21219
1.21219
1.21219
1.21219
1.21219
1.21219
1.2122
1.2122
1.2122
1.2126
1.2126
1.2126
1.2126
1.21261
1.21261
1.21261
1.21261
1.21261
1.21261
1.21261
1.21261
1.2126
1.2126
1.2126
1.2126
1.2126
1.2126
1.2126
1.2126
1.2126
1.2126
1.2126
1.2126
1.2126
1.21261
1.21261
1.21261
1.21261
1.21261
1.21211
1.21211
1.21211
1.21211
1.21211
1.21211
1.21211
1.2121
1.2121
1.2121
1.2121
1.2121
1.2121
1.2121
1.2121
1.2121
1.2121
1.21209
1.21209
1.2121
1.2121
1.2121
1.2121
1.2121
1.2121
1.2121
1.21211
1.21211
1.21211
1.21211
1.21271
1.21271
1.21271
1.21271
1.21271
1.21271
1.21271
1.21271
1.21271
1.2127
1.2127
1.2127
1.2127
1.2127
1.2127
1.2127
1.2127
1.2127
1.2127
1.2127
1.2127
1.2127
1.2127
1.21271
1.21271
1.21271
1.21271
1.21271
1.21271
1.21271
1.212
1.212
1.212
1.212
1.212
1.21199
1.21199
1.21199
1.21199
1.21198
1.21198
1.21198
1.21197
1.21197
1.21197
1.21197
1.21197
1.21197
1.21198
1.21198
1.21198
1.21198
1.21199
1.21199
1.21199
1.21199
1.212
1.212
1.212
1.212
1.21287
1.21286
1.21286
1.21286
1.21285
1.21285
1.21284
1.21284
1.21283
1.21283
1.21282
1.21282
1.21281
1.21281
1.21281
1.21281
1.21281
1.21282
1.21282
1.21282
1.21283
1.21283
1.21284
1.21284
1.21285
1.21285
1.21285
1.21285
1.21286
1.21286
1.21189
1.21188
1.21188
1.21187
1.21186
1.21185
1.21185
1.21183
1.21183
1.21182
1.21181
1.2118
1.2118
1.21179
1.21179
1.21179
1.2118
1.2118
1.21181
1.21181
1.21182
1.21183
1.21183
1.21184
1.21185
1.21186
1.21186
1.21187
1.21187
1.21187
1.21309
1.21309
1.21308
1.21307
1.21306
1.21304
1.21303
1.21301
1.213
1.21298
1.21297
1.21296
1.21295
1.21295
1.21294
1.21295
1.21295
1.21296
1.21296
1.21298
1.21299
1.213
1.21301
1.21303
1.21304
1.21305
1.21306
1.21307
1.21307
1.21308
1.21177
1.21175
1.21175
1.21172
1.21171
1.21168
1.21166
1.21163
1.2116
1.21158
1.21156
1.21154
1.21153
1.21152
1.21151
1.21151
1.21152
1.21153
1.21154
1.21156
1.21158
1.21161
1.21163
1.21165
1.21167
1.2117
1.21171
1.21173
1.21173
1.21174
1.21347
1.21345
1.21344
1.2134
1.21338
1.21333
1.21329
1.21324
1.21321
1.21316
1.21313
1.2131
1.21308
1.21306
1.21306
1.21306
1.21307
1.21309
1.21311
1.21314
1.21317
1.21321
1.21324
1.21329
1.21332
1.21336
1.21339
1.21342
1.21343
1.21344
1.21173
1.21169
1.21168
1.21161
1.21157
1.21148
1.21142
1.21134
1.21128
1.2112
1.21116
1.2111
1.21107
1.21104
1.21103
1.21103
1.21104
1.21107
1.2111
1.21116
1.2112
1.21128
1.21133
1.21141
1.21147
1.21155
1.21158
1.21165
1.21166
1.2117
1.21418
1.21413
1.21409
1.21398
1.21391
1.21377
1.21367
1.21354
1.21344
1.21332
1.21324
1.21315
1.2131
1.21305
1.21303
1.21304
1.21305
1.2131
1.21315
1.21324
1.21332
1.21343
1.21353
1.21366
1.21375
1.21389
1.21396
1.21406
1.21409
1.21415
1.21209
1.21197
1.21191
1.21167
1.21156
1.21129
1.21115
1.21089
1.21075
1.21054
1.21042
1.21028
1.2102
1.21013
1.2101
1.2101
1.21013
1.2102
1.21028
1.21042
1.21053
1.21074
1.21087
1.21112
1.21126
1.21153
1.21164
1.21187
1.21192
1.21205
1.21577
1.21554
1.21544
1.21506
1.21484
1.21442
1.21416
1.21378
1.21353
1.21322
1.21303
1.21281
1.21269
1.21258
1.21254
1.21254
1.21258
1.21269
1.21281
1.21303
1.21321
1.21352
1.21375
1.21414
1.21439
1.21481
1.21502
1.2154
1.21549
1.21572
1.21422
1.21346
1.21326
1.21227
1.21194
1.21104
1.21068
1.20997
1.20964
1.20912
1.20887
1.20853
1.20838
1.20821
1.20816
1.20816
1.20821
1.20837
1.20852
1.20885
1.2091
1.20961
1.20994
1.21064
1.211
1.21188
1.21221
1.2132
1.21339
1.21415
1.2202
1.21865
1.21831
1.21679
1.21619
1.21491
1.2143
1.21331
1.21281
1.21211
1.21175
1.2113
1.21108
1.21086
1.21078
1.21079
1.21085
1.21107
1.21128
1.21173
1.21208
1.2128
1.21327
1.21428
1.21485
1.21616
1.21672
1.21827
1.21856
1.22015
1.2252
1.21807
1.2172
1.21288
1.21191
1.20935
1.20853
1.207
1.20639
1.20548
1.20507
1.20456
1.20433
1.20409
1.20402
1.20402
1.20409
1.20432
1.20454
1.20505
1.20545
1.20636
1.20696
1.20848
1.20929
1.21182
1.21278
1.21708
1.21793
1.22505
1.23062
1.22323
1.22031
1.2161
1.21461
1.21202
1.21108
1.20948
1.20885
1.20787
1.20747
1.2069
1.20667
1.20641
1.20634
1.20634
1.20641
1.20667
1.20688
1.20746
1.20784
1.20884
1.20943
1.21107
1.21193
1.2146
1.21595
1.22032
1.22285
1.23054
1.19485
1.19801
1.19511
1.19666
1.19544