# vtk DataFile Version 3.0
Structured Grid Example
ASCII
DATASET STRUCTURED_GRID
DIMENSIONS 15 30 1
POINTS 450 FLOAT
0.0833327 0.0333334 0
0.0833313 0.1 0
0.0833301 0.166667 0
0.083329 0.233333 0
0.0833281 0.3 0
0.0833274 0.366667 0
0.083327 0.433333 0
0.0833268 0.5 0
0.083327 0.566667 0
0.0833274 0.633333 0
0.0833281 0.7 0
0.083329 0.766667 0
0.0833301 0.833333 0
0.0833313 0.9 0
0.0833327 0.966667 0
0.249998 0.0333334 0
0.249993 0.1 0
0.249989 0.166667 0
0.249986 0.233334 0
0.249983 0.3 0
0.24998 0.366667 0
0.249979 0.433333 0
0.249979 0.5 0
0.249979 0.566667 0
0.24998 0.633333 0
0.249983 0.7 0
0.249986 0.766666 0
0.249989 0.833333 0
0.249993 0.9 0
0.249998 0.966667 0
0.416662 0.0333336 0
0.416654 0.100001 0
0.416646 0.166668 0
0.416639 0.233334 0
0.416633 0.300001 0
0.416628 0.366667 0
0.416626 0.433334 0
0.416625 0.5 0
0.416626 0.566666 0
0.416628 0.633333 0
0.416633 0.699999 0
0.416639 0.766666 0
0.416646 0.833332 0
0.416654 0.899999 0
0.416662 0.966666 0
0.583326 0.033334 0
0.58331 0.100002 0
0.583296 0.166669 0
0.583284 0.233336 0
0.583273 0.300003 0
0.583266 0.366669 0
0.583261 0.433335 0
0.583259 0.5 0
0.583261 0.566665 0
0.583266 0.633331 0
0.583273 0.699997 0
0.583284 0.766664 0
0.583296 0.833331 0
0.58331 0.899998 0
0.583326 0.966666 0
0.749987 0.0333351 0
0.749961 0.100005 0
0.749937 0.166674 0
0.749915 0.233342 0
0.749898 0.300008 0
0.749884 0.366673 0
0.749876 0.433337 0
0.749874 0.5 0
0.749876 0.566663 0
0.749884 0.633327 0
0.749898 0.699992 0
0.749915 0.766658 0
0.749937 0.833326 0
0.749961 0.899995 0
0.749987 0.966665 0
0.916644 0.033338 0
0.916601 0.100013 0
0.91656 0.166686 0
0.916524 0.233356 0
0.916494 0.300021 0
0.916472 0.366683 0
0.916458 0.433342 0
0.916454 0.5 0
0.916458 0.566658 0
0.916472 0.633317 0
0.916494 0.699979 0
0.916524 0.766644 0
0.91656 0.833314 0
0.916601 0.899987 0
0.916644 0.966662 0
1.0833 0.0333461 0
1.08322 0.100036 0
1.08315 0.166719 0
1.08309 0.233394 0
1.08304 0.300058 0
1.08301 0.366712 0
1.08298 0.433358 0
1.08298 0.5 0
1.08298 0.566642 0
1.08301 0.633288 0
1.08304 0.699942 0
1.08309 0.766606 0
1.08315 0.833281 0
1.08322 0.899964 0
1.0833 0.966654 0
1.24994 0.0333682 0
1.24981 0.100098 0
1.2497 0.16681 0
1.24959 0.233497 0
1.24951 0.300156 0
1.24945 0.366788 0
1.24942 0.433399 0
1.2494 0.5 0
1.24942 0.566601 0
1.24945 0.633212 0
1.24951 0.699844 0
1.24959 0.766503 0
1.2497 0.83319 0
1.24981 0.899902 0
1.24994 0.966632 0
1.41656 0.0334298 0
1.41634 0.10027 0
1.41615 0.16706 0
1.41598 0.233778 0
1.41585 0.300419 0
1.41575 0.36699 0
1.41569 0.433509 0
1.41567 0.5 0
1.41569 0.566491 0
1.41575 0.63301 0
1.41585 0.699581 0
1.41598 0.766222 0
1.41615 0.83294 0
1.41634 0.89973 0
1.41656 0.96657 0
1.58313 0.0336075 0
1.58275 0.10076 0
1.58242 0.167751 0
1.58215 0.234537 0
1.58195 0.301115 0
1.58181 0.367517 0
1.58173 0.433791 0
1.58171 0.5 0
1.58173 0.566209 0
1.58181 0.632483 0
1.58195 0.698885 0
1.58215 0.765463 0
1.58242 0.832249 0
1.58275 0.89924 0
1.58313 0.966392 0
1.74959 0.0341677 0
1.74885 0.102235 0
1.74829 0.169714 0
1.74791 0.236575 0
1.74766 0.302905 0
1.74751 0.368829 0
1.74744 0.434482 0
1.74741 0.5 0
1.74744 0.565518 0
1.74751 0.631171 0
1.74766 0.697095 0
1.74791 0.763425 0
1.74829 0.830286 0
1.74885 0.897765 0
1.74959 0.965832 0
1.91555 0.0363295 0
1.91388 0.107253 0
1.91312 0.175401 0
1.91283 0.241837 0
1.91276 0.307169 0
1.91277 0.371793 0
1.9128 0.435995 0
1.91281 0.5 0
1.9128 0.564005 0
1.91277 0.628207 0
1.91276 0.692831 0
1.91283 0.758163 0
1.91312 0.824599 0
1.91388 0.892747 0
1.91555 0.963671 0
2.07838 0.0591504 0
2.07417 0.125973 0
2.07554 0.190391 0
2.07663 0.253364 0
2.07743 0.315525 0
2.07798 0.377223 0
2.07829 0.438667 0
2.0784 0.5 0
2.07829 0.561333 0
2.07798 0.622777 0
2.07743 0.684475 0
2.07663 0.746636 0
2.07554 0.809609 0
2.07417 0.874027 0
2.07838 0.94085 0
2.24384 0.096456 0
2.23911 0.153168 0
2.24152 0.210396 0
2.24318 0.267878 0
2.24431 0.325632 0
2.24503 0.383617 0
2.24544 0.441767 0
2.24557 0.5 0
2.24544 0.558233 0
2.24503 0.616383 0
2.24431 0.674368 0
2.24318 0.732122 0
2.24152 0.789604 0
2.23911 0.846832 0
2.24384 0.903544 0
2.41462 0.118677 0
2.41292 0.170231 0
2.41356 0.223198 0
2.41406 0.277268 0
2.41444 0.332207 0
2.4147 0.387788 0
2.41485 0.44379 0
2.4149 0.5 0
2.41485 0.55621 0
2.4147 0.612212 0
2.41444 0.667793 0
2.41406 0.722732 0
2.41356 0.776802 0
2.41292 0.829769 0
2.41462 0.881323 0
2.58538 0.118677 0
2.58708 0.170231 0
2.58644 0.223198 0
2.58594 0.277268 0
2.58556 0.332207 0
2.5853 0.387788 0
2.58515 0.44379 0
2.5851 0.5 0
2.58515 0.55621 0
2.5853 0.612212 0
2.58556 0.667793 0
2.58594 0.722732 0
2.58644 0.776802 0
2.58708 0.829769 0
2.58538 0.881323 0
2.75616 0.096456 0
2.76089 0.153168 0
2.75848 0.210396 0
2.75682 0.267878 0
2.75569 0.325632 0
2.75497 0.383617 0
2.75456 0.441767 0
2.75443 0.5 0
2.75456 0.558233 0
2.75497 0.616383 0
2.75569 0.674368 0
2.75682 0.732122 0
2.75848 0.789604 0
2.76089 0.846832 0
2.75616 0.903544 0
2.92162 0.0591504 0
2.92583 0.125973 0
2.92446 0.190391 0
2.92337 0.253364 0
2.92257 0.315525 0
2.92202 0.377223 0
2.92171 0.438667 0
2.9216 0.5 0
2.92171 0.561333 0
2.92202 0.622777 0
2.92257 0.684475 0
2.92337 0.746636 0
2.92446 0.809609 0
2.92583 0.874027 0
2.92162 0.94085 0
3.08445 0.0363295 0
3.08612 0.107253 0
3.08688 0.175401 0
3.08717 0.241837 0
3.08724 0.307169 0
3.08723 0.371793 0
3.0872 0.435995 0
3.08719 0.5 0
3.0872 0.564005 0
3.08723 0.628207 0
3.08724 0.692831 0
3.08717 0.758163 0
3.08688 0.824599 0
3.08612 0.892747 0
3.08445 0.963671 0
3.25041 0.0341677 0
3.25115 0.102235 0
3.25171 0.169714 0
3.25209 0.236575 0
3.25234 0.302905 0
3.25249 0.368829 0
3.25256 0.434482 0
3.25259 0.5 0
3.25256 0.565518 0
3.25249 0.631171 0
3.25234 0.697095 0
3.25209 0.763425 0
3.25171 0.830286 0
3.25115 0.897765 0
3.25041 0.965832 0
3.41687 0.0336075 0
3.41725 0.10076 0
3.41758 0.167751 0
3.41785 0.234537 0
3.41805 0.301115 0
3.41819 0.367517 0
3.41827 0.433791 0
3.41829 0.5 0
3.41827 0.566209 0
3.41819 0.632483 0
3.41805 0.698885 0
3.41785 0.765463 0
3.41758 0.832249 0
3.41725 0.89924 0
3.41687 0.966392 0
3.58344 0.0334298 0
3.58366 0.10027 0
3.58385 0.16706 0
3.58402 0.233778 0
3.58415 0.300419 0
3.58425 0.36699 0
3.58431 0.433509 0
3.58433 0.5 0
3.58431 0.566491 0
3.58425 0.63301 0
3.58415 0.699581 0
3.58402 0.766222 0
3.58385 0.83294 0
3.58366 0.89973 0
3.58344 0.96657 0
3.75006 0.0333682 0
3.75019 0.100098 0
3.7503 0.16681 0
3.75041 0.233497 0
3.75049 0.300156 0
3.75055 0.366788 0
3.75058 0.433399 0
3.7506 0.5 0
3.75058 0.566601 0
3.75055 0.633212 0
3.75049 0.699844 0
3.75041 0.766503 0
3.7503 0.83319 0
3.75019 0.899902 0
3.75006 0.966632 0
3.9167 0.0333461 0
3.91678 0.100036 0
3.91685 0.166719 0
3.91691 0.233394 0
3.91696 0.300058 0
3.91699 0.366712 0
3.91702 0.433358 0
3.91702 0.5 0
3.91702 0.566642 0
3.91699 0.633288 0
3.91696 0.699942 0
3.91691 0.766606 0
3.91685 0.833281 0
3.91678 0.899964 0
3.9167 0.966654 0
4.08336 0.033338 0
4.0834 0.100013 0
4.08344 0.166686 0
4.08348 0.233356 0
4.08351 0.300021 0
4.08353 0.366683 0
4.08354 0.433342 0
4.08355 0.5 0
4.08354 0.566658 0
4.08353 0.633317 0
4.08351 0.699979 0
4.08348 0.766644 0
4.08344 0.833314 0
4.0834 0.899987 0
4.08336 0.966662 0
4.25001 0.0333351 0
4.25004 0.100005 0
4.25006 0.166674 0
4.25008 0.233342 0
4.2501 0.300008 0
4.25012 0.366673 0
4.25012 0.433337 0
4.25013 0.5 0
4.25012 0.566663 0
4.25012 0.633327 0
4.2501 0.699992 0
4.25008 0.766658 0
4.25006 0.833326 0
4.25004 0.899995 0
4.25001 0.966665 0
4.41667 0.033334 0
4.41669 0.100002 0
4.4167 0.166669 0
4.41672 0.233336 0
4.41673 0.300003 0
4.41673 0.366669 0
4.41674 0.433335 0
4.41674 0.5 0
4.41674 0.566665 0
4.41673 0.633331 0
4.41673 0.699997 0
4.41672 0.766664 0
4.4167 0.833331 0
4.41669 0.899998 0
4.41667 0.966666 0
4.58334 0.0333336 0
4.58335 0.100001 0
4.58335 0.166668 0
4.58336 0.233334 0
4.58337 0.300001 0
4.58337 0.366667 0
4.58337 0.433334 0
4.58338 0.5 0
4.58337 0.566666 0
4.58337 0.633333 0
4.58337 0.699999 0
4.58336 0.766666 0
4.58335 0.833332 0
4.58335 0.899999 0
4.58334 0.966666 0
4.75 0.0333334 0
4.75001 0.1 0
4.75001 0.166667 0
4.75001 0.233334 0
4.75002 0.3 0
4.75002 0.366667 0
4.75002 0.433333 0
4.75002 0.5 0
4.75002 0.566667 0
4.75002 0.633333 0
4.75002 0.7 0
4.75001 0.766666 0
4.75001 0.833333 0
4.75001 0.9 0
4.75 0.966667 0
4.91667 0.0333334 0
4.91667 0.1 0
4.91667 0.166667 0
4.91667 0.233333 0
4.91667 0.3 0
4.91667 0.366667 0
4.91667 0.433333 0
4.91667 0.5 0
4.91667 0.566667 0
4.91667 0.633333 0
4.91667 0.7 0
4.91667 0.766667 0
4.91667 0.833333 0
4.91667 0.9 0
4.91667 0.966667 0
POINT_DATA 450
SCALARS pressure float 1
LOOKUP_TABLE default
84692.4
84691.4
84687.9
84687.2
84683.2
84684.1
84680.7
84683.1
84680.7
84684.1
84683.1
84687.1
84687.8
84691.2
84692.2
83378.3
83364.7
83345.5
83321.7
83305.1
83288.1
83282.3
83276.3
83282.4
83288.3
83305.3
83322
83345.9
83365.4
83379.1
84881.1
84881.4
84879.5
84881.4
84878.5
84881.7
84878.2
84881.9
84878.2
84881.7
84878.5
84881.4
84879.5
84881.4
84881.1
83141.9
83138.1
83138.2
83130.3
83133
83123.8
83129.5
83121.4
83129.6
83123.9
83133
83130.4
83138.3
83138.2
83142
85056.3
85057.8
85055.2
85060.6
85056
85063.4
85056.9
85064.5
85056.9
85063.4
85056
85060.5
85055.2
85057.8
85056.3
82960.4
82952.9
82958.4
82941.6
82954.4
82932.3
82951.2
82928.6
82951.2
82932.2
82954.2
82941.4
82958.1
82952.7
82960.1
85228.3
85230.3
85224
85232.7
85222.8
85235.3
85222.6
85236.2
85222.6
85235.1
85222.7
85232.5
85223.9
85230.1
85228.1
82821
82793.8
82805.3
82742.9
82770.9
82696.2
82744.4
82677.5
82744.2
82695.8
82770.3
82742.2
82804.3
82792.9
82820
85425.2
85418.3
85399.4
85398.3
85375.7
85381
85361.7
85373.9
85361.5
85380.4
85375.4
85397.4
85398.8
85417.2
85424.4
82992.4
82806.6
82806.1
82500.9
82527.6
82250.8
82348.2
82158
82347.6
82250
82525.6
82499.2
82803.2
82804.1
82989
85900.4
85729.2
85636.7
85497.7
85427.2
85333.5
85315.2
85274.9
85314.8
85331.5
85426.1
85494.2
85634.8
85724.6
85897.5
86071.3
83555.6
83336.8
81666
81523.7
80582.8
80672.4
80236.2
80670.7
80581.9
81518.6
81663.6
83328.3
83551.7
86061.1
88269.4
86560.9
85424.8
84669.2
84386.7
83999.8
84014.8
83825.9
84014.3
83993.3
84385.5
84654.5
85423
86532.5
88264.9
63343.2
66330
64799.6
67049.6
65971.3
67625.5
66584.7
67833.4
66586.1
67632.3
65975.5
67064.6
64807.1
66355.7
63352.6
70171.6
74352.2
73714.4
76658.5
75679.6
77814.9
76566.3
78167.4
76563.6
77817.2
75671.5
76664
73700.8
74362.8
70151.6
49409.7
54786.6
53001.7
57579.4
55305.1
59206.2
56438.2
59736.8
56427
59198.4
55271.1
57560.8
52944.5
54750.1
49323.3
71466.2
74789.6
72722.3
75941.4
73731.3
76738.7
74274.9
77014.8
74264.3
76733.9
73698.8
75930
72665.9
74767.6
71380.9
81008.1
79500.4
78174.5
77808
76720.2
76957.4
76079.5
76703
76080.6
76973.9
76724
77843.2
78181.9
79556
81033.2
90120.7
87613.8
87065.6
86100.2
85465.7
85263.8
84751.2
85001.6
84759.9
85275.2
85493.6
86124.5
87118.5
87652.4
90219.8
78998.3
79046.6
78813.8
78932.8
78633.3
78829.9
78522.7
78790.2
78522.9
78829.8
78633.6
78931.9
78813.3
79042.7
78996.4
86957.1
86731.1
86612.7
86416.4
86254.8
86186.5
86051.5
86105.7
86054.5
86190.1
86263.2
86423
86624.4
86738.9
86967.9
79394.7
79423.4
79363.4
79433.9
79339.7
79436.9
79326
79437
79326
79436.2
79339.6
79432.6
79363.1
79421.7
79394.2
86052.7
86034.1
86011.8
85983.9
85949.9
85938.5
85908.9
85921.2
85909.7
85939.4
85952
85985.5
86014.5
86035.7
86054.9
79953.5
79966.4
79943.1
79974.3
79936.7
79979.2
79933.6
79980.8
79933.6
79979
79936.8
79973.9
79943.3
79965.9
79953.6
85516.7
85515.1
85511
85507.5
85501.1
85499.6
85494.1
85496.4
85494.3
85499.7
85501.5
85507.7
85511.5
85515.3
85517
80462.5
80468.6
80458.6
80472.5
80456.5
80475.2
80455.5
80476.2
80455.7
80475.3
80456.8
80472.7
80459.1
80468.8
80463.1
85092.7
85092.3
85091.3
85090.6
85089.2
85088.7
85087.9
85088
85087.9
85088.7
85089.2
85090.4
85091.2
85091.9
85092.4
80868
80871.4
80867.1
80874.3
80867.3
80876.6
80867.7
80877.6
80867.9
80877
80867.9
80875
80868
80872.3
80869.2
84771.9
84771.6
84771.1
84770.7
84770.3
84769.8
84769.8
84769.5
84769.7
84769.7
84770.2
84770.5
84770.9
84771.3
84771.5
81147.5
81152.5
81151.9
81159.8
81157.1
81165.8
81160.4
81168.1
81160.8
81166.5
81158.2
81161.3
81153.9
81154.9
81150.6
SCALARS density float 1
LOOKUP_TABLE default
1.21138
1.21258
1.21424
1.21558
1.21631
1.21672
1.21688
1.21698
1.21688
1.21672
1.21631
1.21559
1.21423
1.21255
1.21131
1.20365
1.20406
1.20458
1.20495
1.20515
1.20517
1.2052
1.20518
1.2052
1.20518
1.20515
1.20496
1.20459
1.20406
1.20365
1.21198
1.21336
1.21528
1.21684
1.21769
1.21819
1.21838
1.2185
1.21838
1.21819
1.2177
1.21685
1.21527
1.21331
1.21189
1.20277
1.20312
1.20358
1.20396
1.20428
1.20435
1.20446
1.2044
1.20446
1.20435
1.20428
1.20396
1.20358
1.20312
1.20278
1.21181
1.21345
1.21577
1.21764
1.21863
1.21925
1.21946
1.21963
1.21945
1.21925
1.21863
1.21765
1.21577
1.2134
1.2117
1.20308
1.20319
1.20333
1.20342
1.20374
1.20362
1.20382
1.20361
1.20382
1.20362
1.20374
1.20342
1.20332
1.2032
1.20311
1.2107
1.21275
1.21568
1.21796
1.21911
1.21991
1.22011
1.22037
1.2201
1.2199
1.21911
1.21797
1.21568
1.21268
1.21056
1.20464
1.20433
1.20398
1.20338
1.20371
1.20294
1.20341
1.2027
1.2034
1.20294
1.2037
1.20337
1.20397
1.20434
1.2047
1.20853
1.21112
1.21498
1.21768
1.21899
1.21991
1.22012
1.22042
1.22012
1.2199
1.21898
1.21768
1.21498
1.21104
1.20833
1.2108
1.20845
1.20719
1.20367
1.20379
1.20063
1.20161
1.19945
1.20161
1.20062
1.20377
1.20364
1.20716
1.20846
1.21089
1.20673
1.20912
1.21401
1.21609
1.21732
1.21759
1.21788
1.21778
1.21787
1.21757
1.21731
1.21607
1.214
1.20898
1.20642
1.25301
1.22221
1.21796
1.19804
1.19625
1.18496
1.18607
1.18072
1.18605
1.18495
1.1962
1.19801
1.21786
1.22221
1.25313
1.22665
1.21463
1.20969
1.20635
1.20537
1.20302
1.20353
1.2021
1.20352
1.20295
1.20535
1.20622
1.20968
1.21424
1.22619
0.993828
1.02655
1.00531
1.03176
1.01967
1.03828
1.02679
1.04056
1.02681
1.03837
1.01974
1.03195
1.00539
1.0269
0.994617
1.06504
1.11209
1.10033
1.13287
1.12168
1.14505
1.13136
1.14876
1.13132
1.14506
1.12157
1.1329
1.10014
1.11219
1.06514
0.830185
0.894208
0.868243
0.922773
0.895627
0.941162
0.908841
0.947078
0.908716
0.941089
0.895253
0.922592
0.867571
0.893937
0.82974
1.06682
1.10719
1.08476
1.12085
1.09921
1.13123
1.10643
1.13461
1.10631
1.13118
1.09884
1.12069
1.08409
1.10696
1.06651
1.17961
1.16761
1.15096
1.14655
1.1365
1.13775
1.12986
1.135
1.12988
1.13794
1.13658
1.14694
1.15102
1.16838
1.18116
1.25188
1.2368
1.23105
1.22253
1.21813
1.21619
1.21222
1.214
1.21231
1.21629
1.21842
1.22271
1.23146
1.23732
1.25431
1.15698
1.15981
1.1577
1.15862
1.15725
1.15891
1.15686
1.15876
1.15686
1.15891
1.15727
1.15855
1.15765
1.15998
1.15809
1.22643
1.2274
1.22612
1.22446
1.22418
1.22385
1.22317
1.22341
1.2232
1.22388
1.22427
1.22447
1.22616
1.22769
1.22773
1.16222
1.16446
1.16442
1.16509
1.16544
1.16654
1.16618
1.16685
1.16618
1.16652
1.16544
1.16501
1.16436
1.16473
1.16329
1.21713
1.2192
1.21922
1.21909
1.21974
1.2201
1.22026
1.22027
1.22027
1.22011
1.21977
1.21905
1.21918
1.2195
1.21825
1.16972
1.1715
1.17198
1.17243
1.17307
1.17384
1.17394
1.1742
1.17395
1.17384
1.17306
1.17235
1.17194
1.17183
1.17076
1.21032
1.2121
1.21253
1.21269
1.21344
1.21397
1.21428
1.21429
1.21429
1.21398
1.21344
1.21263
1.21249
1.21243
1.21136
1.17742
1.1789
1.1796
1.18
1.18067
1.18133
1.18158
1.1817
1.18158
1.18133
1.18066
1.17992
1.17957
1.17927
1.17842
1.20363
1.20509
1.20571
1.20599
1.20668
1.20726
1.20759
1.20762
1.20759
1.20726
1.20667
1.20592
1.20568
1.20546
1.20461
1.18513
1.18639
1.18718
1.1876
1.18824
1.18885
1.18916
1.18924
1.18916
1.18885
1.18822
1.18752
1.18717
1.18679
1.18609
1.19664
1.19787
1.19861
1.199
1.19963
1.20023
1.20055
1.20063
1.20056
1.20024
1.19962
1.19893
1.19861
1.19828
1.19759
1.19311
1.19425
1.19505
1.1955
1.19612
1.19672
1.19704
1.19714
1.19705
1.19673
1.1961
1.19543
1.19506
1.19467
1.19405
SCALARS u-velocity float 1
LOOKUP_TABLE default
164.191
165.158
166.446
167.538
168.163
168.555
168.712
168.808
168.712
168.554
168.163
167.541
166.449
165.153
164.178
161.765
161.652
161.543
161.468
161.485
161.482
161.512
161.497
161.512
161.482
161.484
161.466
161.54
161.649
161.763
163.728
164.925
166.477
167.788
168.504
168.973
169.14
169.264
169.14
168.972
168.505
167.792
166.481
164.919
163.712
162.741
162.227
161.623
161.095
160.881
160.673
160.64
160.553
160.639
160.673
160.881
161.093
161.619
162.228
162.746
162.942
164.549
166.542
168.23
169.083
169.695
169.876
170.058
169.876
169.693
169.084
168.234
166.549
164.542
162.922
163.803
162.787
161.607
160.562
160.129
159.716
159.624
159.475
159.624
159.718
160.13
160.562
161.6
162.792
163.815
161.74
164.003
166.628
168.868
169.886
170.714
170.915
171.181
170.915
170.713
169.888
168.873
166.64
163.993
161.713
165.104
163.424
161.495
159.867
159.167
158.629
158.404
158.298
158.404
158.635
159.169
159.87
161.485
163.438
165.129
159.836
163.154
166.713
169.729
170.996
172.1
172.396
172.715
172.397
172.098
171.001
169.734
166.736
163.141
159.8
165.413
163.376
160.566
159.134
158.217
158.345
157.802
158.251
157.805
158.358
158.224
159.149
160.554
163.407
165.462
155.98
161.302
166.766
170.869
172.943
174.345
175.129
175.3
175.133
174.346
172.953
170.88
166.81
161.295
155.932
150.756
159.517
156.166
161.459
161.02
164.803
163.988
166.021
163.994
164.821
161.044
161.491
156.164
159.571
150.881
141.336
153.299
169.412
174.619
180.261
181.532
183.754
183.264
183.758
181.552
180.274
174.674
169.472
153.395
141.257
238.327
227.735
231.09
224.65
228.46
222.69
226.485
221.913
226.483
222.669
228.461
224.611
231.072
227.665
238.862
241.263
229.057
226.153
217.794
219.416
212.837
216.144
211.267
216.152
212.818
219.438
217.752
226.189
229.082
241.765
298.439
280.464
281.243
267.298
272.854
260.495
268.5
258.224
268.545
260.545
272.998
267.42
281.475
280.747
299.171
214.24
212.888
215.983
212.564
217.206
211.835
216.83
211.292
216.862
211.836
217.301
212.553
216.136
212.999
215.284
153.963
174.317
171.267
182.361
181.702
187.457
185.723
188.85
185.706
187.393
181.658
182.22
171.087
174.179
155.438
126.018
154.886
154.312
166.179
166.439
172.665
171.055
174.386
171.012
172.607
166.302
166.021
153.963
154.977
127.523
165.006
173.479
171.905
176.581
175.437
179.015
176.795
179.551
176.792
179.014
175.439
176.55
171.843
173.75
166.471
148.392
157.706
157.364
162.536
162.118
165.94
164.147
166.772
164.133
165.918
162.079
162.448
157.243
158.005
149.908
164.585
171.117
171.249
174.233
173.898
176.288
174.887
176.681
174.888
176.289
173.901
174.185
171.202
171.466
165.978
153.069
159.384
160.255
163.166
163.215
165.517
164.436
166.014
164.432
165.511
163.201
163.091
160.195
159.778
154.497
163.247
168.587
169.894
172.113
172.418
174.1
173.426
174.492
173.427
174.102
172.414
172.05
169.86
169.001
164.58
155.427
160.496
162.263
164.391
164.899
166.45
165.983
166.874
165.983
166.449
164.884
164.313
162.231
160.95
156.777
161.846
166.359
168.381
170.246
170.915
172.177
171.959
172.581
171.96
172.179
170.901
170.174
168.366
166.826
163.129
157.302
161.567
163.871
165.694
166.473
167.631
167.546
168.05
167.547
167.631
166.451
165.612
163.862
162.063
158.584
160.572
164.495
166.939
168.675
169.533
170.556
170.599
170.975
170.601
170.557
169.51
168.594
166.944
165.003
161.812
158.888
162.583
165.182
166.9
167.818
168.757
168.888
169.183
168.89
168.757
167.788
166.813
165.195
163.107
160.11
159.52
163.004
165.679
167.39
168.343
169.218
169.407
169.648
169.409
169.216
168.308
167.301
165.702
163.539
160.716
SCALARS v-velocity float 1
LOOKUP_TABLE default
-0.246814
-0.584442
-0.784056
-0.740862
-0.63237
-0.433661
-0.229049
0.00155464
0.232486
0.436771
0.635808
0.744652
0.789195
0.58962
0.249059
0.0764521
0.161059
0.22296
0.201586
0.176635
0.118015
0.0639313
2.6504e-05
-0.0642043
-0.117972
-0.176854
-0.201624
-0.223434
-0.161624
-0.0767205
-0.140746
-0.290408
-0.421538
-0.38841
-0.353792
-0.240469
-0.132577
0.000823383
0.134925
0.242062
0.355817
0.389813
0.423541
0.292193
0.141485
0.143377
0.277991
0.396676
0.348894
0.313387
0.207268
0.114069
3.0943e-05
-0.115156
-0.207264
-0.314343
-0.349048
-0.39794
-0.279238
-0.14402
-0.175903
-0.349874
-0.505384
-0.456521
-0.410567
-0.278828
-0.151606
0.000608528
0.154824
0.28
0.413222
0.457468
0.507797
0.351837
0.176815
0.216849
0.408558
0.574901
0.502771
0.446139
0.300184
0.161723
0.000457118
-0.164236
-0.299433
-0.448366
-0.502338
-0.577231
-0.410245
-0.218075
-0.198662
-0.467828
-0.597733
-0.576015
-0.464327
-0.342184
-0.165815
0.00078722
0.173024
0.343653
0.47033
0.576985
0.602389
0.47044
0.200427
0.280391
0.645541
0.781861
0.751302
0.595251
0.447337
0.214005
0.00213742
-0.219226
-0.44345
-0.600055
-0.748221
-0.786389
-0.646735
-0.283349
0.0433578
-0.510692
-0.191977
-0.386914
-0.0406477
-0.154239
0.0138176
0.00166608
0.00414696
0.157118
0.0562689
0.388134
0.203461
0.513688
-0.0378997
0.216649
1.35844
1.07188
1.39068
0.840321
0.810211
0.305949
0.00724368
-0.315047
-0.796436
-0.849764
-1.37859
-1.08182
-1.35442
-0.227386
2.75953
1.3687
3.77869
2.73811
3.12027
1.88052
1.18557
0.00503446
-1.14344
-1.87179
-3.07983
-2.73442
-3.74447
-1.36659
-2.73187
-0.357422
5.18456
2.67046
4.1981
2.2769
2.27082
0.849534
0.0206332
-0.854197
-2.23005
-2.28696
-4.1586
-2.69081
-5.15186
0.30122
36.3739
36.2157
28.7682
25.013
17.1491
12.2937
5.6599
0.0162402
-5.58319
-12.2618
-17.0647
-24.9858
-28.6749
-36.2121
-36.2278
48.087
28.8128
23.8692
15.1744
11.7302
6.68169
3.56215
0.0432492
-3.49795
-6.59353
-11.6574
-15.0794
-23.7694
-28.6851
-48.0666
21.8129
13.3681
14.3289
8.55128
8.2389
4.23203
2.69076
-0.00314665
-2.68612
-4.23916
-8.24507
-8.55948
-14.3572
-13.3812
-21.9174
-17.1022
-17.7634
-8.04606
-9.28775
-3.59688
-3.9925
-1.0234
0.0833898
1.05713
4.1595
3.63035
9.4568
8.08795
17.9468
17.1802
-37.6546
-36.5125
-24.1004
-21.9281
-13.3149
-10.2832
-4.21578
0.122215
4.33102
10.5365
13.4555
22.2054
24.3011
36.8777
38.0805
-35.8291
-36.4512
-24.1811
-22.2056
-13.8554
-10.5743
-4.48377
0.200049
4.55048
10.988
13.9305
22.66
24.2714
37.0367
36.2156
-2.59314
-0.567706
-2.7948
-2.01421
-2.20269
-1.39774
-0.84309
0.0476669
0.763894
1.4868
2.11127
2.0823
2.68305
0.604892
2.46439
-5.07319
-3.46155
-5.66757
-4.28534
-4.0337
-2.51826
-1.4332
0.0692966
1.42799
2.64828
4.01826
4.38347
5.6316
3.48491
4.97916
-1.04453
0.694018
-0.687539
0.292175
-0.460795
0.110652
-0.176165
0.019533
0.133505
-0.0728436
0.418266
-0.255353
0.652511
-0.660292
0.985893
-1.37017
0.154197
-1.37617
-0.403637
-1.0642
-0.325837
-0.39628
0.0208662
0.380461
0.363949
1.04349
0.433906
1.35231
-0.144891
1.3117
-0.633501
0.485674
-0.344958
0.312089
-0.219938
0.167882
-0.0780125
0.00962986
0.0621001
-0.148859
0.203882
-0.290448
0.334237
-0.469056
0.597719
-0.65878
0.310322
-0.474653
0.114453
-0.356462
0.0380255
-0.131056
0.0049838
0.117515
-0.029153
0.341219
-0.10449
0.461337
-0.311281
0.621783
-0.380537
0.280248
-0.176863
0.202047
-0.116838
0.112264
-0.0387198
0.00532565
0.0342754
-0.101836
0.1122
-0.188332
0.176053
-0.273647
0.358329
-0.370631
0.173187
-0.220906
0.102779
-0.16595
0.0490749
-0.0593056
-0.000270333
0.0489959
-0.0500923
0.155263
-0.100609
0.212603
-0.180579
0.345941
-0.223786
0.149589
-0.0808575
0.124059
-0.056663
0.0690263
-0.0169252
0.00283761
0.0162075
-0.0635858
0.0561798
-0.114982
0.0833508
-0.14859
0.209302
-0.218004
0.0714063
-0.119204
0.052234
-0.0939625
0.0235935
-0.0330996
-0.00197029
0.0250976
-0.0278741
0.0862517
-0.0529692
0.113205
-0.0813769
0.200798
-0.134919
0.0684233
-0.0396319
0.0688259
-0.03243
0.0358155
-0.00982105
0.000104572
0.00743231
-0.0357221
0.030933
-0.0646083
0.0408261
-0.0717524
0.124408
-0.131642
0.0157735
-0.0680256
0.0213398
-0.0566863
0.00674195
-0.0199419
-0.0023226
0.0135256
-0.0116599
0.0510169
-0.0227783
0.0632557
-0.026168
0.119163
SCALARS Mach float 1
LOOKUP_TABLE default
0.433234
0.435576
0.438684
0.441318
0.442841
0.443795
0.444187
0.444415
0.444187
0.443794
0.442843
0.441325
0.438693
0.43557
0.433213
0.431564
0.431224
0.43089
0.430685
0.430737
0.430769
0.430859
0.430837
0.430857
0.430767
0.430733
0.430677
0.430878
0.431214
0.431555
0.431426
0.434332
0.43808
0.44124
0.442976
0.444108
0.444523
0.444817
0.444522
0.444106
0.442978
0.441248
0.43809
0.434324
0.4314
0.434942
0.433516
0.43182
0.430361
0.429726
0.42918
0.429057
0.428857
0.429056
0.429181
0.429724
0.430356
0.431809
0.433518
0.434953
0.428942
0.432877
0.43771
0.441791
0.443862
0.445335
0.44579
0.446217
0.44579
0.445332
0.443865
0.441801
0.437728
0.432867
0.428908
0.438203
0.435486
0.432291
0.429523
0.428275
0.427248
0.426916
0.426612
0.426916
0.427254
0.428276
0.429522
0.432275
0.435499
0.438232
0.425544
0.431128
0.437519
0.442961
0.445448
0.44744
0.447961
0.448574
0.447962
0.447436
0.445453
0.442973
0.437551
0.431115
0.425498
0.44177
0.437406
0.432276
0.428186
0.42618
0.425066
0.424254
0.424266
0.424257
0.425082
0.426188
0.428199
0.432255
0.437443
0.441828
0.420425
0.428712
0.437415
0.444837
0.447978
0.450685
0.451472
0.452218
0.451476
0.450682
0.447991
0.444852
0.437478
0.428698
0.420367
0.441013
0.436507
0.429219
0.426808
0.424248
0.425865
0.423976
0.426054
0.423984
0.425902
0.424277
0.426858
0.429202
0.436597
0.441138
0.409517
0.423439
0.437235
0.447915
0.453324
0.457152
0.459186
0.459752
0.459197
0.457162
0.453354
0.447955
0.437356
0.423458
0.409448
0.387978
0.422095
0.414335
0.436404
0.43582
0.450785
0.44806
0.455869
0.448086
0.450837
0.435908
0.436501
0.414369
0.422245
0.388302
0.374842
0.410568
0.451777
0.466486
0.479841
0.483736
0.488621
0.487926
0.48863
0.483814
0.479861
0.466687
0.451899
0.410944
0.374631
0.818971
0.743478
0.769283
0.723508
0.745437
0.710589
0.732152
0.705936
0.732128
0.710451
0.745377
0.723214
0.769114
0.742933
0.820338
0.748914
0.674374
0.672465
0.625097
0.636923
0.602734
0.620717
0.595853
0.620761
0.60267
0.63705
0.624947
0.672699
0.674372
0.750557
1.24741
1.07307
1.10849
0.980646
1.03623
0.93276
1.00197
0.917528
1.0023
0.933049
1.03732
0.98137
1.11043
1.07471
1.25191
0.665804
0.634384
0.653947
0.61903
0.646035
0.608361
0.639372
0.6041
0.639554
0.608434
0.646592
0.61917
0.654928
0.635043
0.669676
0.432187
0.494008
0.487341
0.519822
0.521572
0.536265
0.535528
0.540941
0.535475
0.536049
0.521434
0.519378
0.486839
0.493635
0.436001
0.317152
0.397664
0.398426
0.432923
0.435998
0.45318
0.451037
0.458802
0.450883
0.452983
0.435513
0.432424
0.397331
0.397727
0.320444
0.461499
0.484322
0.481239
0.493638
0.491648
0.500607
0.495772
0.502218
0.495763
0.500612
0.491649
0.493575
0.481075
0.485056
0.465366
0.384046
0.408514
0.408119
0.422294
0.421652
0.431821
0.427609
0.434267
0.427558
0.43175
0.421513
0.422047
0.407773
0.409222
0.387738
0.457932
0.475545
0.476117
0.484044
0.483334
0.489439
0.485966
0.490464
0.485968
0.489448
0.483345
0.483931
0.475996
0.476467
0.461595
0.399739
0.41592
0.418243
0.425931
0.42603
0.432004
0.429228
0.433314
0.429215
0.431983
0.425983
0.42574
0.418085
0.416892
0.403276
0.451156
0.465519
0.469099
0.475041
0.475867
0.480221
0.478478
0.481224
0.478481
0.480228
0.475857
0.474886
0.469013
0.466598
0.454637
0.408309
0.421318
0.425891
0.431456
0.432672
0.43665
0.435383
0.437715
0.435381
0.436645
0.432632
0.431263
0.425812
0.422452
0.411678
0.444403
0.456489
0.46193
0.466927
0.468673
0.47195
0.471358
0.47298
0.471362
0.471955
0.468639
0.466743
0.461892
0.457698
0.447734
0.415412
0.426415
0.432388
0.43715
0.439083
0.442032
0.441751
0.443071
0.441753
0.442031
0.439027
0.436945
0.432369
0.427659
0.418626
0.438363
0.448826
0.455354
0.459988
0.462223
0.464866
0.46495
0.46593
0.464954
0.464867
0.462163
0.459781
0.455368
0.450133
0.441566
0.421619
0.431201
0.437961
0.442445
0.444762
0.447143
0.447428
0.448198
0.447432
0.44714
0.444686
0.442228
0.437997
0.43252
0.424695
0.433285
0.442524
0.449636
0.45417
0.456646
0.45888
0.459347
0.45996
0.45935
0.458873
0.456553
0.453939
0.449692
0.443889
0.436355
