# vtk DataFile Version 3.0
Structured Grid Example
ASCII
DATASET STRUCTURED_GRID
DIMENSIONS 60 120 1
POINTS 7200 FLOAT
0.0208333 0.00833333 0
0.0208333 0.025 0
0.0208333 0.0416667 0
0.0208332 0.0583333 0
0.0208332 0.075 0
0.0208332 0.0916667 0
0.0208332 0.108333 0
0.0208331 0.125 0
0.0208331 0.141667 0
0.0208331 0.158333 0
0.0208331 0.175 0
0.020833 0.191667 0
0.020833 0.208333 0
0.020833 0.225 0
0.020833 0.241667 0
0.020833 0.258333 0
0.0208329 0.275 0
0.0208329 0.291667 0
0.0208329 0.308333 0
0.0208329 0.325 0
0.0208329 0.341667 0
0.0208329 0.358333 0
0.0208329 0.375 0
0.0208328 0.391667 0
0.0208328 0.408333 0
0.0208328 0.425 0
0.0208328 0.441667 0
0.0208328 0.458333 0
0.0208328 0.475 0
0.0208328 0.491667 0
0.0208328 0.508333 0
0.0208328 0.525 0
0.0208328 0.541667 0
0.0208328 0.558333 0
0.0208328 0.575 0
0.0208328 0.591667 0
0.0208328 0.608333 0
0.0208329 0.625 0
0.0208329 0.641667 0
0.0208329 0.658333 0
0.0208329 0.675 0
0.0208329 0.691667 0
0.0208329 0.708333 0
0.0208329 0.725 0
0.020833 0.741667 0
0.020833 0.758333 0
0.020833 0.775 0
0.020833 0.791667 0
0.020833 0.808333 0
0.0208331 0.825 0
0.0208331 0.841667 0
0.0208331 0.858333 0
0.0208331 0.875 0
0.0208332 0.891667 0
0.0208332 0.908333 0
0.0208332 0.925 0
0.0208332 0.941667 0
0.0208333 0.958333 0
0.0208333 0.975 0
0.0208333 0.991667 0
0.0625 0.00833334 0
0.0624999 0.025 0
0.0624998 0.0416667 0
0.0624997 0.0583333 0
0.0624996 0.075 0
0.0624996 0.0916667 0
0.0624995 0.108333 0
0.0624994 0.125 0
0.0624993 0.141667 0
0.0624993 0.158333 0
0.0624992 0.175 0
0.0624991 0.191667 0
0.062499 0.208333 0
0.062499 0.225 0
0.0624989 0.241667 0
0.0624989 0.258333 0
0.0624988 0.275 0
0.0624988 0.291667 0
0.0624987 0.308333 0
0.0624987 0.325 0
0.0624986 0.341667 0
0.0624986 0.358333 0
0.0624986 0.375 0
0.0624985 0.391667 0
0.0624985 0.408333 0
0.0624985 0.425 0
0.0624985 0.441667 0
0.0624984 0.458333 0
0.0624984 0.475 0
0.0624984 0.491667 0
0.0624984 0.508333 0
0.0624984 0.525 0
0.0624984 0.541667 0
0.0624985 0.558333 0
0.0624985 0.575 0
0.0624985 0.591667 0
0.0624985 0.608333 0
0.0624986 0.625 0
0.0624986 0.641667 0
0.0624986 0.658333 0
0.0624987 0.675 0
0.0624987 0.691667 0
0.0624988 0.708333 0
0.0624988 0.725 0
0.0624989 0.741667 0
0.0624989 0.758333 0
0.062499 0.775 0
0.062499 0.791667 0
0.0624991 0.808333 0
0.0624992 0.825 0
0.0624993 0.841667 0
0.0624993 0.858333 0
0.0624994 0.875 0
0.0624995 0.891667 0
0.0624996 0.908333 0
0.0624996 0.925 0
0.0624997 0.941667 0
0.0624998 0.958333 0
0.0624999 0.975 0
0.0625 0.991667 0
0.104167 0.00833334 0
0.104166 0.025 0
0.104166 0.0416667 0
0.104166 0.0583334 0
0.104166 0.075 0
0.104166 0.0916667 0
0.104166 0.108333 0
0.104166 0.125 0
0.104166 0.141667 0
0.104165 0.158333 0
0.104165 0.175 0
0.104165 0.191667 0
0.104165 0.208333 0
0.104165 0.225 0
0.104165 0.241667 0
0.104165 0.258333 0
0.104165 0.275 0
0.104165 0.291667 0
0.104164 0.308333 0
0.104164 0.325 0
0.104164 0.341667 0
0.104164 0.358333 0
0.104164 0.375 0
0.104164 0.391667 0
0.104164 0.408333 0
0.104164 0.425 0
0.104164 0.441667 0
0.104164 0.458333 0
0.104164 0.475 0
0.104164 0.491667 0
0.104164 0.508333 0
0.104164 0.525 0
0.104164 0.541667 0
0.104164 0.558333 0
0.104164 0.575 0
0.104164 0.591667 0
0.104164 0.608333 0
0.104164 0.625 0
0.104164 0.641667 0
0.104164 0.658333 0
0.104164 0.675 0
0.104164 0.691667 0
0.104165 0.708333 0
0.104165 0.725 0
0.104165 0.741667 0
0.104165 0.758333 0
0.104165 0.775 0
0.104165 0.791667 0
0.104165 0.808333 0
0.104165 0.825 0
0.104165 0.841667 0
0.104166 0.858333 0
0.104166 0.875 0
0.104166 0.891667 0
0.104166 0.908333 0
0.104166 0.925 0
0.104166 0.941667 0
0.104166 0.958333 0
0.104166 0.975 0
0.104167 0.991667 0
0.145833 0.00833334 0
0.145833 0.025 0
0.145833 0.0416667 0
0.145833 0.0583334 0
0.145832 0.0750001 0
0.145832 0.0916667 0
0.145832 0.108333 0
0.145832 0.125 0
0.145832 0.141667 0
0.145832 0.158333 0
0.145831 0.175 0
0.145831 0.191667 0
0.145831 0.208333 0
0.145831 0.225 0
0.145831 0.241667 0
0.145831 0.258333 0
0.14583 0.275 0
0.14583 0.291667 0
0.14583 0.308333 0
0.14583 0.325 0
0.14583 0.341667 0
0.14583 0.358333 0
0.14583 0.375 0
0.14583 0.391667 0
0.14583 0.408333 0
0.14583 0.425 0
0.14583 0.441667 0
0.14583 0.458333 0
0.14583 0.475 0
0.14583 0.491667 0
0.14583 0.508333 0
0.14583 0.525 0
0.14583 0.541667 0
0.14583 0.558333 0
0.14583 0.575 0
0.14583 0.591667 0
0.14583 0.608333 0
0.14583 0.625 0
0.14583 0.641667 0
0.14583 0.658333 0
0.14583 0.675 0
0.14583 0.691667 0
0.14583 0.708333 0
0.14583 0.725 0
0.145831 0.741667 0
0.145831 0.758333 0
0.145831 0.775 0
0.145831 0.791667 0
0.145831 0.808333 0
0.145831 0.825 0
0.145832 0.841667 0
0.145832 0.858333 0
0.145832 0.875 0
0.145832 0.891667 0
0.145832 0.908333 0
0.145832 0.925 0
0.145833 0.941667 0
0.145833 0.958333 0
0.145833 0.975 0
0.145833 0.991667 0
0.1875 0.00833334 0
0.1875 0.025 0
0.187499 0.0416667 0
0.187499 0.0583334 0
0.187499 0.0750001 0
0.187499 0.0916668 0
0.187498 0.108333 0
0.187498 0.125 0
0.187498 0.141667 0
0.187498 0.158333 0
0.187497 0.175 0
0.187497 0.191667 0
0.187497 0.208333 0
0.187497 0.225 0
0.187497 0.241667 0
0.187496 0.258333 0
0.187496 0.275 0
0.187496 0.291667 0
0.187496 0.308333 0
0.187496 0.325 0
0.187496 0.341667 0
0.187496 0.358333 0
0.187495 0.375 0
0.187495 0.391667 0
0.187495 0.408333 0
0.187495 0.425 0
0.187495 0.441667 0
0.187495 0.458333 0
0.187495 0.475 0
0.187495 0.491667 0
0.187495 0.508333 0
0.187495 0.525 0
0.187495 0.541667 0
0.187495 0.558333 0
0.187495 0.575 0
0.187495 0.591667 0
0.187495 0.608333 0
0.187495 0.625 0
0.187496 0.641667 0
0.187496 0.658333 0
0.187496 0.675 0
0.187496 0.691667 0
0.187496 0.708333 0
0.187496 0.725 0
0.187496 0.741667 0
0.187497 0.758333 0
0.187497 0.775 0
0.187497 0.791667 0
0.187497 0.808333 0
0.187497 0.825 0
0.187498 0.841667 0
0.187498 0.858333 0
0.187498 0.875 0
0.187498 0.891667 0
0.187499 0.908333 0
0.187499 0.925 0
0.187499 0.941667 0
0.187499 0.958333 0
0.1875 0.975 0
0.1875 0.991667 0
0.229167 0.00833334 0
0.229166 0.025 0
0.229166 0.0416667 0
0.229166 0.0583334 0
0.229165 0.0750001 0
0.229165 0.0916668 0
0.229165 0.108333 0
0.229164 0.125 0
0.229164 0.141667 0
0.229164 0.158334 0
0.229163 0.175 0
0.229163 0.191667 0
0.229163 0.208334 0
0.229163 0.225 0
0.229162 0.241667 0
0.229162 0.258334 0
0.229162 0.275 0
0.229162 0.291667 0
0.229162 0.308334 0
0.229161 0.325 0
0.229161 0.341667 0
0.229161 0.358334 0
0.229161 0.375 0
0.229161 0.391667 0
0.229161 0.408333 0
0.229161 0.425 0
0.229161 0.441667 0
0.22916 0.458333 0
0.22916 0.475 0
0.22916 0.491667 0
0.22916 0.508333 0
0.22916 0.525 0
0.22916 0.541667 0
0.229161 0.558333 0
0.229161 0.575 0
0.229161 0.591667 0
0.229161 0.608333 0
0.229161 0.625 0
0.229161 0.641666 0
0.229161 0.658333 0
0.229161 0.675 0
0.229162 0.691666 0
0.229162 0.708333 0
0.229162 0.725 0
0.229162 0.741666 0
0.229162 0.758333 0
0.229163 0.775 0
0.229163 0.791666 0
0.229163 0.808333 0
0.229163 0.825 0
0.229164 0.841666 0
0.229164 0.858333 0
0.229164 0.875 0
0.229165 0.891667 0
0.229165 0.908333 0
0.229165 0.925 0
0.229166 0.941667 0
0.229166 0.958333 0
0.229166 0.975 0
0.229167 0.991667 0
0.270833 0.00833335 0
0.270833 0.025 0
0.270832 0.0416667 0
0.270832 0.0583334 0
0.270832 0.0750001 0
0.270831 0.0916668 0
0.270831 0.108334 0
0.27083 0.125 0
0.27083 0.141667 0
0.27083 0.158334 0
0.270829 0.175 0
0.270829 0.191667 0
0.270829 0.208334 0
0.270828 0.225 0
0.270828 0.241667 0
0.270828 0.258334 0
0.270828 0.275 0
0.270827 0.291667 0
0.270827 0.308334 0
0.270827 0.325 0
0.270827 0.341667 0
0.270826 0.358334 0
0.270826 0.375 0
0.270826 0.391667 0
0.270826 0.408333 0
0.270826 0.425 0
0.270826 0.441667 0
0.270826 0.458333 0
0.270826 0.475 0
0.270826 0.491667 0
0.270826 0.508333 0
0.270826 0.525 0
0.270826 0.541667 0
0.270826 0.558333 0
0.270826 0.575 0
0.270826 0.591667 0
0.270826 0.608333 0
0.270826 0.625 0
0.270826 0.641666 0
0.270827 0.658333 0
0.270827 0.675 0
0.270827 0.691666 0
0.270827 0.708333 0
0.270828 0.725 0
0.270828 0.741666 0
0.270828 0.758333 0
0.270828 0.775 0
0.270829 0.791666 0
0.270829 0.808333 0
0.270829 0.825 0
0.27083 0.841666 0
0.27083 0.858333 0
0.27083 0.875 0
0.270831 0.891666 0
0.270831 0.908333 0
0.270832 0.925 0
0.270832 0.941667 0
0.270832 0.958333 0
0.270833 0.975 0
0.270833 0.991667 0
0.3125 0.00833335 0
0.312499 0.0250001 0
0.312499 0.0416668 0
0.312498 0.0583335 0
0.312498 0.0750002 0
0.312497 0.0916669 0
0.312497 0.108334 0
0.312497 0.125 0
0.312496 0.141667 0
0.312496 0.158334 0
0.312495 0.175 0
0.312495 0.191667 0
0.312494 0.208334 0
0.312494 0.225 0
0.312494 0.241667 0
0.312493 0.258334 0
0.312493 0.275 0
0.312493 0.291667 0
0.312492 0.308334 0
0.312492 0.325 0
0.312492 0.341667 0
0.312492 0.358334 0
0.312492 0.375 0
0.312491 0.391667 0
0.312491 0.408334 0
0.312491 0.425 0
0.312491 0.441667 0
0.312491 0.458333 0
0.312491 0.475 0
0.312491 0.491667 0
0.312491 0.508333 0
0.312491 0.525 0
0.312491 0.541667 0
0.312491 0.558333 0
0.312491 0.575 0
0.312491 0.591666 0
0.312491 0.608333 0
0.312492 0.625 0
0.312492 0.641666 0
0.312492 0.658333 0
0.312492 0.675 0
0.312492 0.691666 0
0.312493 0.708333 0
0.312493 0.725 0
0.312493 0.741666 0
0.312494 0.758333 0
0.312494 0.775 0
0.312494 0.791666 0
0.312495 0.808333 0
0.312495 0.825 0
0.312496 0.841666 0
0.312496 0.858333 0
0.312497 0.875 0
0.312497 0.891666 0
0.312497 0.908333 0
0.312498 0.925 0
0.312498 0.941667 0
0.312499 0.958333 0
0.312499 0.975 0
0.3125 0.991667 0
0.354166 0.00833336 0
0.354166 0.0250001 0
0.354165 0.0416668 0
0.354165 0.0583335 0
0.354164 0.0750002 0
0.354164 0.0916669 0
0.354163 0.108334 0
0.354163 0.125 0
0.354162 0.141667 0
0.354162 0.158334 0
0.354161 0.175 0
0.354161 0.191667 0
0.35416 0.208334 0
0.35416 0.225 0
0.354159 0.241667 0
0.354159 0.258334 0
0.354158 0.275 0
0.354158 0.291667 0
0.354158 0.308334 0
0.354157 0.325 0
0.354157 0.341667 0
0.354157 0.358334 0
0.354157 0.375 0
0.354157 0.391667 0
0.354156 0.408334 0
0.354156 0.425 0
0.354156 0.441667 0
0.354156 0.458333 0
0.354156 0.475 0
0.354156 0.491667 0
0.354156 0.508333 0
0.354156 0.525 0
0.354156 0.541667 0
[...]
POINT_DATA 7200
SCALARS pressure float 1
LOOKUP_TABLE default
84600.6
84600.6
84600.6
84600.6
84600.6
84600.6
84600.6
84600.6
84600.6
84600.6
84600.6
84600.6
84600.6
84600.6
84600.6
84600.6
84600.6
84600.6
84600.6
84600.6
84600.6
84600.6
84600.6
84600.6
84600.6
84600.6
84600.6
84600.6
84600.6
84600.6
84600.6
84600.6
84600.6
84600.6
84600.6
84600.6
84600.6
84600.6
84600.6
84600.6
84600.6
84600.6
84600.6
84600.6
84600.6
84600.6
84600.6
84600.6
84600.6
84600.6
84600.6
84600.6
84600.6
84600.6
84600.6
84600.6
84600.6
84600.6
84600.6
84600.6
84612.5
84612.4
84612.4
84612.4
84612.4
84612.4
84612.4
84612.3
84612.3
84612.3
84612.3
84612.2
84612.2
84612.2
84612.2
84612.2
84612.2
84612.2
84612.2
84612.2
84612.2
84612.3
84612.3
84612.3
84612.3
84612.3
84612.4
84612.4
84612.4
84612.4
84612.4
84612.4
84612.4
84612.3
84612.3
84612.3
84612.3
84612.3
84612.3
84612.2
84612.2
84612.2
84612.2
84612.2
84612.2
84612.2
84612.2
84612.2
84612.2
84612.2
84612.3
84612.3
84612.3
84612.3
84612.4
84612.4
84612.4
84612.4
84612.4
84612.4
84605.2
84605.1
84605.1
84605.1
84605.1
84605.1
84605
84605
84605
84604.9
84604.9
84604.9
84604.8
84604.8
84604.8
84604.8
84604.8
84604.8
84604.8
84604.9
84604.9
84604.9
84605
84605
84605
84605
84605.1
84605.1
84605.1
84605.1
84605.1
84605.1
84605.1
84605.1
84605
84605
84605
84604.9
84604.9
84604.9
84604.9
84604.8
84604.8
84604.8
84604.8
84604.8
84604.8
84604.8
84604.8
84604.9
84604.9
84604.9
84605
84605
84605
84605.1
84605.1
84605.1
84605.1
84605.1
84608.5
84608.5
84608.5
84608.5
84608.5
84608.4
84608.4
84608.3
84608.3
84608.3
84608.2
84608.2
84608.2
84608.1
84608.1
84608.1
84608.1
84608.2
84608.2
84608.2
84608.2
84608.3
84608.3
84608.4
84608.4
84608.4
84608.5
84608.5
84608.5
84608.5
84608.5
84608.5
84608.5
84608.5
84608.4
84608.4
84608.4
84608.3
84608.3
84608.2
84608.2
84608.2
84608.2
84608.1
84608.1
84608.1
84608.1
84608.2
84608.2
84608.2
84608.2
84608.3
84608.3
84608.4
84608.4
84608.4
84608.5
84608.5
84608.5
84608.5
84608.5
84608.5
84608.5
84608.4
84608.4
84608.4
84608.3
84608.3
84608.3
84608.2
84608.2
84608.1
84608.1
84608.1
84608.1
84608.1
84608.1
84608.1
84608.1
84608.2
84608.2
84608.3
84608.3
84608.3
84608.4
84608.4
84608.4
84608.5
84608.5
84608.5
84608.5
84608.5
84608.5
84608.4
84608.4
84608.4
84608.3
84608.3
84608.2
84608.2
84608.2
84608.1
84608.1
84608.1
84608.1
84608.1
84608.1
84608.1
84608.1
84608.2
84608.2
84608.2
84608.3
84608.3
84608.4
84608.4
84608.4
84608.4
84608.5
84608.5
84605.7
84605.6
84605.6
84605.6
84605.6
84605.6
84605.5
84605.5
84605.5
84605.5
84605.4
84605.4
84605.4
84605.4
84605.4
84605.4
84605.4
84605.4
84605.4
84605.4
84605.4
84605.5
84605.5
84605.5
84605.5
84605.6
84605.6
84605.6
84605.6
84605.6
84605.6
84605.6
84605.6
84605.6
84605.6
84605.5
84605.5
84605.5
84605.5
84605.4
84605.4
84605.4
84605.4
84605.4
84605.4
84605.4
84605.4
84605.4
84605.4
84605.4
84605.4
84605.5
84605.5
84605.5
84605.6
84605.6
84605.6
84605.6
84605.6
84605.6
84610.8
84610.8
84610.8
84610.8
84610.8
84610.8
84610.8
84610.8
84610.7
84610.7
84610.7
84610.7
84610.7
84610.7
84610.7
84610.7
84610.7
84610.7
84610.7
84610.7
84610.7
84610.7
84610.7
84610.7
84610.7
84610.7
84610.8
84610.8
84610.8
84610.8
84610.8
84610.8
84610.8
84610.7
84610.7
84610.7
84610.7
84610.7
84610.7
84610.7
84610.7
84610.7
84610.7
84610.7
84610.7
84610.7
84610.7
84610.7
84610.7
84610.7
84610.7
84610.7
84610.7
84610.7
84610.8
84610.8
84610.8
84610.8
84610.8
84610.8
84603.3
84603.3
84603.3
84603.3
84603.3
84603.4
84603.4
84603.4
84603.4
84603.4
84603.4
84603.4
84603.4
84603.4
84603.4
84603.4
84603.4
84603.4
84603.4
84603.4
84603.4
84603.3
84603.3
84603.3
84603.3
84603.2
84603.2
84603.2
84603.2
84603.2
84603.2
84603.2
84603.2
84603.2
84603.2
84603.3
84603.3
84603.3
84603.3
84603.3
84603.4
84603.4
84603.4
84603.4
84603.4
84603.4
84603.4
84603.4
84603.4
84603.4
84603.4
84603.4
84603.4
84603.3
84603.3
84603.3
84603.3
84603.3
84603.3
84603.3
84612.5
84612.5
84612.5
84612.6
84612.6
84612.7
84612.7
84612.8
84612.8
84612.8
84612.9
84612.9
84612.9
84613
84613
84613
84612.9
84612.9
84612.9
84612.8
84612.8
84612.7
84612.7
84612.6
84612.6
84612.5
84612.5
84612.5
84612.4
84612.4
84612.4
84612.4
84612.5
84612.5
84612.5
84612.6
84612.6
84612.7
84612.7
84612.8
84612.8
84612.9
84612.9
84612.9
84612.9
84612.9
84612.9
84612.9
84612.9
84612.9
84612.8
84612.8
84612.7
84612.7
84612.6
84612.6
84612.6
84612.5
84612.5
84612.5
84601.2
84601.2
84601.2
84601.3
84601.3
84601.4
84601.5
84601.5
84601.6
84601.7
84601.8
84601.8
84601.9
84601.9
84601.9
84601.9
84601.9
84601.8
84601.8
84601.7
84601.6
84601.5
84601.5
84601.4
84601.3
84601.2
84601.1
84601.1
84601.1
84601
84601
84601.1
84601.1
84601.1
84601.2
84601.3
84601.4
84601.4
84601.5
84601.6
84601.7
84601.8
84601.8
84601.8
84601.9
84601.9
84601.9
84601.8
84601.8
84601.7
84601.7
84601.6
84601.5
84601.4
84601.4
84601.3
84601.3
84601.2
84601.2
84601.1
84614
84614
84614.1
84614.1
84614.2
84614.3
84614.4
84614.5
84614.6
84614.7
84614.8
84614.9
84614.9
84615
84615
84615
84615
84614.9
84614.9
84614.8
84614.7
84614.6
84614.5
84614.3
84614.2
84614.1
84614.1
84614
84613.9
84613.9
84613.9
84613.9
84614
84614.1
84614.1
84614.2
84614.3
84614.4
84614.6
84614.7
84614.8
84614.8
84614.9
84615
84615
84615
84615
84614.9
84614.9
84614.8
84614.7
84614.6
84614.5
84614.4
84614.3
84614.2
84614.1
84614
84614
84614
84599.2
84599.3
84599.3
84599.4
84599.5
84599.6
84599.7
84599.8
84599.9
84600.1
84600.2
84600.2
84600.3
84600.4
84600.4
84600.4
84600.3
84600.3
84600.2
84600.1
84600
84599.8
84599.7
84599.6
84599.5
84599.3
84599.2
84599.2
84599.1
84599.1
84599.1
84599.1
84599.2
84599.2
84599.3
84599.4
84599.6
84599.7
84599.8
84600
84600.1
84600.2
84600.3
84600.3
84600.3
84600.4
84600.3
84600.3
84600.2
84600.1
84600
84599.9
84599.8
84599.7
84599.6
84599.4
84599.4
84599.3
84599.2
84599.2
84615.7
84615.7
84615.7
84615.8
84615.9
84616
84616.1
84616.3
84616.4
84616.5
84616.6
84616.7
84616.8
84616.8
84616.9
84616.9
84616.8
84616.8
84616.7
84616.6
84616.4
84616.3
84616.2
84616
84615.9
84615.8
84615.7
84615.6
84615.6
84615.5
84615.5
84615.6
84615.6
84615.7
84615.8
84615.9
84616
84616.2
84616.3
84616.4
84616.5
84616.7
84616.7
84616.8
84616.8
84616.8
84616.8
84616.8
84616.7
84616.6
84616.5
84616.4
84616.2
84616.1
84616
84615.9
84615.8
84615.7
84615.7
84615.6
84597.6
84597.6
84597.7
84597.7
84597.8
84597.9
84598
84598.1
84598.2
84598.3
84598.4
84598.5
84598.6
84598.6
84598.6
84598.6
84598.5
84598.5
84598.4
84598.3
84598.1
84598
84597.9
84597.7
84597.6
84597.5
84597.4
84597.3
84597.3
84597.2
84597.2
84597.3
84597.3
84597.4
84597.5
84597.6
84597.7
84597.9
84598
84598.1
84598.2
84598.4
84598.4
84598.5
84598.6
84598.6
84598.6
84598.5
84598.5
84598.4
84598.3
84598.2
84598.1
84598
84597.9
84597.8
84597.7
84597.6
84597.6
84597.6
84617.8
84617.8
84617.8
84617.9
84617.9
84618
84618.1
84618.2
84618.3
84618.3
84618.4
84618.5
84618.5
84618.5
84618.5
84618.5
84618.5
84618.4
84618.4
84618.3
84618.2
84618.1
84618
84617.8
84617.7
84617.6
84617.6
84617.5
84617.5
84617.4
84617.4
84617.4
84617.5
84617.6
84617.6
84617.7
84617.8
84617.9
84618
84618.2
84618.2
84618.3
84618.4
84618.5
84618.5
84618.5
84618.5
84618.5
84618.4
84618.4
84618.3
84618.2
84618.1
84618
84618
84617.9
84617.8
84617.8
84617.7
84617.7
84596.1
84596.1
84596.1
84596.1
84596.2
84596.2
84596.2
84596.3
84596.3
84596.4
84596.4
84596.4
84596.4
84596.4
84596.4
84596.4
84596.3
84596.3
84596.2
84596.1
84596
84596
84595.9
84595.8
84595.7
84595.6
84595.6
84595.5
84595.5
84595.5
84595.5
84595.5
84595.5
84595.6
84595.6
84595.7
84595.8
84595.9
84595.9
84596
84596.1
84596.2
84596.2
84596.3
84596.3
84596.4
84596.4
84596.4
84596.4
84596.3
84596.3
84596.3
84596.2
84596.2
84596.2
84596.1
84596.1
84596.1
84596
84596
84620.3
84620.3
84620.3
84620.3
84620.3
84620.3
84620.3
84620.3
84620.3
84620.2
84620.2
84620.2
84620.2
84620.2
84620.2
84620.1
84620.1
84620.1
84620.1
84620
84620
84620
84619.9
84619.9
84619.9
84619.8
84619.8
84619.8
84619.8
84619.8
84619.8
84619.8
84619.8
84619.8
84619.8
84619.8
84619.9
84619.9
84619.9
84620
84620
84620
84620
84620.1
84620.1
84620.1
84620.1
84620.2
84620.2
84620.2
84620.2
84620.2
84620.2
84620.2
84620.2
84620.2
84620.2
84620.2
84620.2
84620.2
84594.6
84594.6
84594.6
84594.5
84594.5
84594.4
84594.3
84594.3
84594.2
84594.1
84594
84594
84593.9
84593.8
84593.8
84593.7
84593.7
84593.7
84593.6
84593.6
84593.6
84593.6
84593.6
84593.6
84593.6
84593.6
84593.6
84593.6
84593.6
84593.6
84593.6
84593.6
84593.6
84593.6
84593.6
84593.6
84593.6
84593.6
84593.6
84593.6
84593.6
84593.6
84593.6
84593.6
84593.7
84593.7
84593.8
84593.8
84593.9
84594
84594.1
84594.1
84594.2
84594.3
84594.3
84594.4
84594.4
84594.5
84594.5
84594.5
84623.3
84623.2
84623.2
84623.1
84623
84622.9
84622.8
84622.7
84622.6
84622.4
84622.3
84622.2
84622.1
84622
84622
84621.9
84621.9
84621.9
84621.9
84622
84622
84622
84622.1
84622.2
84622.2
84622.3
84622.3
84622.4
84622.4
84622.4
84622.4
84622.4
84622.4
84622.3
84622.3
84622.2
84622.1
84622.1
84622
84621.9
84621.9
84621.9
84621.9
84621.9
84621.9
84621.9
84622
84622.1
84622.1
84622.3
84622.4
84622.5
84622.6
84622.7
84622.8
84623
84623
84623.1
84623.1
84623.2
84593
84593
84592.9
84592.8
84592.7
84592.5
84592.3
84592.1
84591.9
84591.7
84591.5
84591.3
84591.1
84591
84590.9
84590.8
84590.7
84590.7
84590.7
84590.7
84590.7
84590.8
84590.9
84591
84591
84591.1
84591.2
84591.2
84591.3
84591.3
84591.3
84591.3
84591.2
84591.2
84591.1
84591
84590.9
84590.8
84590.8
84590.7
84590.7
84590.6
84590.6
84590.7
84590.7
84590.8
84590.9
84591.1
84591.2
84591.4
84591.6
84591.8
84592
84592.2
84592.4
84592.6
84592.7
84592.8
84592.9
84592.9
84626.7
84626.6
84626.6
84626.4
84626.3
84626.1
84625.9
84625.6
84625.4
84625.1
84624.9
84624.7
84624.5
84624.4
84624.3
84624.2
84624.1
84624.1
84624.1
84624.2
84624.3
84624.4
84624.5
84624.6
84624.7
84624.8
84624.9
84625
84625
84625.1
84625.1
84625
84625
84624.9
84624.8
84624.7
84624.6
84624.4
84624.3
84624.2
84624.1
84624.1
84624
84624
84624.1
84624.2
84624.3
84624.4
84624.6
84624.8
84625
84625.3
84625.5
84625.8
84625.9
84626.2
84626.3
84626.5
84626.5
84626.6
84591.1
84591.1
84591
84590.8
84590.6
84590.3
84590.1
84589.7
84589.4
84589.1
84588.8
84588.5
84588.2
84588
84587.8
84587.6
84587.5
84587.4
84587.4
84587.4
84587.4
84587.5
84587.5
84587.6
84587.7
84587.8
84587.9
84588
84588
84588
84588
84588
84587.9
84587.9
84587.8
84587.7
84587.6
84587.5
84587.4
84587.4
84587.3
84587.3
84587.3
84587.4
84587.5
84587.7
84587.9
84588.1
84588.4
84588.7
84589
84589.3
84589.6
84589.9
84590.2
84590.5
84590.7
84590.8
84590.9
84591
84630.5
84630.5
84630.4
84630.2
84630
84629.7
84629.5
84629.2
84628.9
84628.5
84628.2
84627.9
84627.7
84627.5
84627.3
84627.1
84627
84626.9
84626.9
84626.9
84626.9
84627
84627.1
84627.2
84627.3
84627.4
84627.5
84627.5
84627.6
84627.6
84627.6
84627.6
84627.5
84627.4
84627.3
84627.2
84627.1
84627
84626.9
84626.9
84626.8
84626.8
84626.8
84626.9
84627
84627.2
84627.3
84627.6
84627.8
84628.1
84628.4
84628.7
84629
84629.3
84629.6
84629.8
84630
84630.2
84630.3
84630.4
84588.9
84588.8
84588.7
84588.5
84588.3
84588
84587.6
84587.2
84586.9
84586.5
84586.1
84585.7
84585.3
84584.9
84584.6
84584.3
84584.1
84583.9
84583.7
84583.6
84583.5
84583.5
84583.4
84583.4
84583.4
84583.4
84583.4
84583.5
84583.5
84583.5
84583.5
84583.5
84583.4
84583.4
84583.4
84583.4
84583.4
84583.4
84583.4
84583.4
84583.5
84583.6
84583.8
84584
84584.2
84584.5
84584.8
84585.2
84585.5
84585.9
84586.3
84586.7
84587.1
84587.5
84587.8
84588.1
84588.3
84588.6
84588.7
84588.7
84635.1
84635
84634.9
84634.7
84634.5
84634.2
84633.9
84633.6
84633.3
84632.9
84632.5
84632.2
84631.8
84631.5
84631.2
84630.9
84630.7
84630.5
84630.3
84630.1
84630
84629.9
84629.9
84629.8
84629.8
84629.8
84629.8
84629.8
84629.8
84629.8
84629.8
84629.8
84629.7
84629.7
84629.7
84629.7
84629.8
84629.8
84629.8
84629.9
84630
84630.2
84630.3
84630.5
84630.8
84631
84631.3
84631.7
84632
84632.4
84632.7
84633.1
84633.4
84633.7
84634
84634.3
84634.5
84634.7
84634.8
84634.8
84586.8
84586.7
84586.6
84586.3
84586.1
84585.7
84585.4
84584.9
84584.5
84583.9
84583.5
84582.9
84582.4
84581.8
84581.3
84580.8
84580.3
84579.8
84579.4
84579
84578.7
84578.3
84578.1
84577.8
84577.6
84577.4
84577.3
84577.2
84577.1
84577.1
84577.1
84577.1
84577.1
84577.2
84577.4
84577.5
84577.7
84578
84578.2
84578.6
84578.9
84579.3
84579.7
84580.2
84580.6
84581.2
84581.6
84582.2
84582.7
84583.3
84583.7
84584.3
84584.7
84585.2
84585.5
84585.9
84586.1
84586.4
84586.5
84586.6
84641
84640.9
84640.8
84640.6
84640.4
84640.1
84639.8
84639.4
84639
84638.5
84638.1
84637.6
84637.1
84636.6
84636.1
84635.6
84635
84634.6
84634.1
84633.7
84633.2
84632.9
84632.5
84632.2
84631.9
84631.7
84631.5
84631.3
84631.2
84631.2
84631.2
84631.2
84631.3
84631.4
84631.6
84631.8
84632.1
84632.4
84632.7
84633.1
84633.5
84633.9
84634.4
84634.9
84635.3
84635.8
84636.3
84636.9
84637.3
84637.8
84638.3
84638.7
84639.1
84639.5
84639.8
84640.1
84640.3
84640.5
84640.6
84640.7
84585.6
84585.4
84585.3
84585
84584.7
84584.2
84583.8
84583.1
84582.5
84581.8
84581.1
84580.2
84579.4
84578.4
84577.6
84576.6
84575.8
84574.8
84574
84573.1
84572.3
84571.5
84570.8
84570.1
84569.6
84569.1
84568.7
84568.4
84568.2
84568.1
84568
84568.1
84568.3
84568.6
84569
84569.5
84570
84570.7
84571.4
84572.1
84572.9
84573.8
84574.6
84575.6
84576.4
84577.4
84578.2
84579.1
84579.9
84580.8
84581.5
84582.3
84582.8
84583.5
84583.9
84584.4
84584.7
84585
84585.1
84585.3
84649.4
84649.3
84649.1
84648.9
84648.6
84648.2
84647.7
84647.2
84646.6
84645.9
84645.2
84644.4
84643.6
84642.7
84641.8
84640.9
84639.9
84639
84638
84637.1
84636.2
84635.4
84634.5
84633.8
84633.2
84632.6
84632.2
84631.8
84631.6
84631.4
84631.4
84631.5
84631.8
84632.1
84632.5
84633.1
84633.7
84634.4
84635.2
84636
84636.9
84637.8
84638.7
84639.7
84640.6
84641.5
84642.4
84643.3
84644.1
84644.9
84645.6
84646.2
84646.8
84647.4
84647.8
84648.2
84648.5
84648.7
84648.9
84649
84586.7
84586.5
84586.3
84585.8
84585.3
84584.5
84583.7
84582.7
84581.7
84580.4
84579.2
84577.7
84576.4
84574.7
84573.2
84571.5
84569.9
84568.2
84566.6
84565
84563.5
84562
84560.7
84559.4
84558.3
84557.4
84556.6
84556
84555.6
84555.4
84555.4
84555.6
84555.9
84556.5
84557.3
84558.2
84559.3
84560.5
84561.8
84563.3
84564.7
84566.4
84567.9
84569.7
84571.2
84572.9
84574.4
84576
84577.4
84578.9
84580.1
84581.3
84582.3
84583.4
84584.1
84584.9
84585.3
84585.8
84586.1
84586.3
84662.2
84661.9
84661.7
84661.2
84660.7
84660
84659.2
84658.2
84657.1
84655.9
84654.6
84653.1
84651.6
84650
84648.3
84646.7
84644.9
84643.2
84641.4
84639.8
84638.1
84636.6
84635.1
84633.8
84632.6
84631.6
84630.7
84630.1
84629.7
84629.5
84629.4
84629.6
84630
84630.7
84631.5
84632.5
84633.6
84634.9
84636.3
84637.9
84639.5
84641.1
84642.9
84644.6
84646.3
84648
84649.6
84651.2
84652.7
84654.1
84655.4
84656.6
84657.7
84658.7
84659.5
84660.2
84660.7
84661.2
84661.4
84661.6
84592.8
84592.3
84592
84591
84590.1
84588.6
84587.2
84585.2
84583.4
84581
84578.8
84576
84573.6
84570.6
84567.9
84564.8
84562
84558.9
84556.2
84553.2
84550.7
84548
84545.8
84543.5
84541.7
84540
84538.8
84537.7
84537.1
84536.7
84536.7
84537
84537.6
84538.7
84539.9
84541.6
84543.4
84545.5
84547.8
84550.4
84552.9
84555.8
84558.6
84561.6
84564.4
84567.5
84570.2
84573.1
84575.6
84578.3
84580.5
84582.9
84584.7
84586.7
84588
84589.5
84590.4
84591.4
84591.8
84592.2
84682.6
84682.1
84681.6
84680.7
84679.6
84678.1
84676.5
84674.5
84672.3
84670
84667.4
84664.7
84661.8
84658.8
84655.7
84652.6
84649.5
84646.4
84643.3
84640.3
84637.4
84634.8
84632.2
84630
84627.9
84626.3
84624.8
84623.8
84623
84622.6
84622.6
84623
84623.7
84624.7
84626.1
84627.8
84629.7
84632
84634.4
84637.1
84639.9
84642.9
84645.9
84649
84652.1
84655.2
84658.3
84661.2
84664.1
84666.8
84669.3
84671.7
84673.8
84675.8
84677.4
84678.9
84679.9
84680.9
84681.4
84681.8
84608.4
84607.6
84606.8
84604.9
84603.1
84600.2
84597.5
84593.6
84590.2
84585.6
84581.5
84576.3
84571.7
84566.2
84561.4
84555.7
84550.8
84545.3
84540.6
84535.4
84531.1
84526.5
84522.8
84519
84516
84513.1
84511
84509.3
84508.2
84507.6
84507.6
84508.1
84509.2
84510.9
84513
84515.8
84518.7
84522.5
84526.2
84530.7
84535.1
84540.2
84544.9
84550.3
84555.2
84560.8
84565.7
84571.1
84575.7
84580.8
84584.9
84589.5
84592.9
84596.8
84599.4
84602.4
84604.1
84606
84606.8
84607.6
84716
84715.1
84714.1
84712.1
84710
84707
84703.7
84699.8
84695.6
84691
84686
84680.8
84675.4
84669.8
84664.1
84658.4
84652.7
84647.2
84641.7
84636.5
84631.5
84626.8
84622.5
84618.7
84615.3
84612.4
84610
84608.2
84607
84606.4
84606.3
84606.9
84608.1
84609.9
84612.2
84615
84618.4
84622.2
84626.4
84631
84635.9
84641.1
84646.6
84652.1
84657.8
84663.4
84669.1
84674.6
84680
84685.2
84690.1
84694.7
84698.9
84702.8
84706
84709
84711.1
84713.2
84714.1
84715
84641.7
84640.1
84638.6
84634.8
84631.4
84625.6
84620.6
84613.1
84606.6
84597.9
84590.3
84580.6
84572.3
84562.1
84553.4
84543.2
84534.6
84524.8
84516.6
84507.6
84500.2
84492.3
84486
84479.6
84474.6
84469.8
84466.3
84463.4
84461.6
84460.6
84460.6
84461.5
84463.3
84466.1
84469.6
84474.3
84479.3
84485.6
84491.9
84499.7
84507.1
84516
84524.3
84533.9
84542.6
84552.7
84561.4
84571.4
84579.8
84589.4
84597
84605.7
84612.2
84619.6
84624.7
84630.4
84633.8
84637.5
84639
84640.7
84772.3
84770.4
84768.6
84764.6
84760.3
84754.4
84748.1
84740.5
84732.4
84723.5
84714.2
84704.3
84694.3
84683.9
84673.5
84663
84652.8
84642.7
84633.1
84623.8
84615.1
84607
84599.6
84593
84587.2
84582.2
84578.2
84575.2
84573.1
84572.1
84572
84573
84575
84578
84581.9
84586.8
84592.5
84599.2
84606.4
84614.6
84623.1
84632.4
84641.9
84652
84662.1
84672.6
84682.8
84693.3
84703.2
84713.2
84722.3
84731.3
84739.2
84746.9
84753.1
84759.1
84763.2
84767.2
84769.1
84770.9
84708.1
84704.9
84702
84694.6
84688.2
84676.9
84667.4
84652.9
84640.9
84624.1
84610.3
84592.1
84577
84558.3
84542.9
84524.5
84509.3
84491.9
84477.8
84462
84449.3
84435.8
84425.1
84414.1
84405.8
84397.7
84392
84387
84384.1
84382.4
84382.4
84384
84386.9
84391.7
84397.4
84405.4
84413.7
84424.6
84435.3
84448.7
84461.4
84477
84491.2
84508.4
84523.6
84541.9
84557.3
84575.9
84591
84609
84623
84639.6
84651.7
84666
84675.6
84686.8
84693.2
84700.6
84703.5
84706.6
84870
84866.4
84862.6
84854.7
84846.4
84834.7
84822.6
84807.7
84792.6
84775.3
84758.1
84739.2
84720.8
84701.3
84682.7
84663.4
84645.3
84626.9
84610.1
84593.4
84578.4
84564
84551.4
84539.7
84530
84521.3
84514.6
84509.4
84505.9
84504.2
84504.1
84505.9
84509.1
84514.4
84520.9
84529.6
84539.2
84550.9
84563.3
84577.7
84592.5
84609.2
84625.8
84644.2
84662.1
84681.5
84700
84719.6
84737.7
84756.7
84773.6
84791.1
84805.9
84821
84832.9
84844.7
84852.8
84860.8
84864.6
84868.2
84837.8
84831.4
84825.9
84810.5
84798.4
84775.4
84757.6
84728.8
84706.6
84673.9
84648.6
84614.1
84587.2
84552.6
84525.4
84492.2
84466
84435.2
84411
84383.7
84362.3
84339.2
84321.4
84302.9
84289.1
84275.6
84266.2
84258
84253.3
84250.5
84250.5
84253.1
84257.9
84265.9
84275.3
84288.6
84302.4
84320.7
84338.6
84361.5
84382.9
84410
84434.3
84464.8
84491.1
84524.1
84551.3
84585.7
84612.7
84647
84672.4
84704.8
84727.1
84755.8
84773.7
84796.5
84808.7
84823.9
84829.5
84835.8
85045.6
85038.1
85030.4
85013.8
84997.6
84973.3
84950.1
84919.8
84891.4
84857.2
84825.5
84789.1
84755.9
84719.1
84686.1
84650.4
84619
84585.8
84557
84527.3
84502.2
84476.9
84456
84435.7
84419.7
84404.9
84393.9
84384.9
84379.4
84376.4
84376.2
84379.3
84384.6
84393.7
84404.3
84419.2
84435
84455.3
84475.9
84501.3
84526.2
84556
84584.4
84617.7
84648.8
84684.7
84717.2
84754.3
84787
84823.7
84854.9
84889.4
84917.4
84947.9
84970.8
84995.3
85011.2
85028
85035.6
85043.1
85093.5
85078.9
85068
85033
85009.3
84958.7
84924.6
84863.9
84822.4
84756.8
84710.8
84644.6
84596.9
84533.1
84486.1
84426.9
84382.6
84329.5
84289.4
84243.4
84208.6
84170.4
84141.7
84111.7
84089.8
84068.2
84053.4
84040.4
84032.9
84028.5
84028.5
84032.8
84040.2
84053.1
84067.9
84089.2
84111.2
84141
84169.6
84207.6
84242.4
84288.1
84328.3
84381.1
84425.5
84484.4
84531.5
84595
84642.8
84708.7
84754.8
84820
84861.7
84922
84956.3
85006.6
85030.4
85065.2
85076.2
85090.7
85374.8
85356.8
85340.2
85301.3
85267.9
85213.3
85167.4
85102.6
85048.5
84978.3
84920.1
84848.6
84789.9
84720.3
84663.7
84598.5
84546.1
84487.2
84440.4
84389.1
84348.9
84306.2
84273.4
84239.7
84214.7