# vtk DataFile Version 3.0
Structured Grid Example
ASCII
DATASET STRUCTURED_GRID
DIMENSIONS 15 30 1
POINTS 450 FLOAT
0.0833327 0.0333334 0
0.0833313 0.1 0
0.0833301 0.166667 0
0.083329 0.233333 0
0.0833281 0.3 0
0.0833274 0.366667 0
0.083327 0.433333 0
0.0833268 0.5 0
0.083327 0.566667 0
0.0833274 0.633333 0
0.0833281 0.7 0
0.083329 0.766667 0
0.0833301 0.833333 0
0.0833313 0.9 0
0.0833327 0.966667 0
0.249998 0.0333334 0
0.249993 0.1 0
0.249989 0.166667 0
0.249986 0.233334 0
0.249983 0.3 0
0.24998 0.366667 0
0.249979 0.433333 0
0.249979 0.5 0
0.249979 0.566667 0
0.24998 0.633333 0
0.249983 0.7 0
0.249986 0.766666 0
0.249989 0.833333 0
0.249993 0.9 0
0.249998 0.966667 0
0.416662 0.0333336 0
0.416654 0.100001 0
0.416646 0.166668 0
0.416639 0.233334 0
0.416633 0.300001 0
0.416628 0.366667 0
0.416626 0.433334 0
0.416625 0.5 0
0.416626 0.566666 0
0.416628 0.633333 0
0.416633 0.699999 0
0.416639 0.766666 0
0.416646 0.833332 0
0.416654 0.899999 0
0.416662 0.966666 0
0.583326 0.033334 0
0.58331 0.100002 0
0.583296 0.166669 0
0.583284 0.233336 0
0.583273 0.300003 0
0.583266 0.366669 0
0.583261 0.433335 0
0.583259 0.5 0
0.583261 0.566665 0
0.583266 0.633331 0
0.583273 0.699997 0
0.583284 0.766664 0
0.583296 0.833331 0
0.58331 0.899998 0
0.583326 0.966666 0
0.749987 0.0333351 0
0.749961 0.100005 0
0.749937 0.166674 0
0.749915 0.233342 0
0.749898 0.300008 0
0.749884 0.366673 0
0.749876 0.433337 0
0.749874 0.5 0
0.749876 0.566663 0
0.749884 0.633327 0
0.749898 0.699992 0
0.749915 0.766658 0
0.749937 0.833326 0
0.749961 0.899995 0
0.749987 0.966665 0
0.916644 0.033338 0
0.916601 0.100013 0
0.91656 0.166686 0
0.916524 0.233356 0
0.916494 0.300021 0
0.916472 0.366683 0
0.916458 0.433342 0
0.916454 0.5 0
0.916458 0.566658 0
0.916472 0.633317 0
0.916494 0.699979 0
0.916524 0.766644 0
0.91656 0.833314 0
0.916601 0.899987 0
0.916644 0.966662 0
1.0833 0.0333461 0
1.08322 0.100036 0
1.08315 0.166719 0
1.08309 0.233394 0
1.08304 0.300058 0
1.08301 0.366712 0
1.08298 0.433358 0
1.08298 0.5 0
1.08298 0.566642 0
1.08301 0.633288 0
1.08304 0.699942 0
1.08309 0.766606 0
1.08315 0.833281 0
1.08322 0.899964 0
1.0833 0.966654 0
1.24994 0.0333682 0
1.24981 0.100098 0
1.2497 0.16681 0
1.24959 0.233497 0
1.24951 0.300156 0
1.24945 0.366788 0
1.24942 0.433399 0
1.2494 0.5 0
1.24942 0.566601 0
1.24945 0.633212 0
1.24951 0.699844 0
1.24959 0.766503 0
1.2497 0.83319 0
1.24981 0.899902 0
1.24994 0.966632 0
1.41656 0.0334298 0
1.41634 0.10027 0
1.41615 0.16706 0
1.41598 0.233778 0
1.41585 0.300419 0
1.41575 0.36699 0
1.41569 0.433509 0
1.41567 0.5 0
1.41569 0.566491 0
1.41575 0.63301 0
1.41585 0.699581 0
1.41598 0.766222 0
1.41615 0.83294 0
1.41634 0.89973 0
1.41656 0.96657 0
1.58313 0.0336075 0
1.58275 0.10076 0
1.58242 0.167751 0
1.58215 0.234537 0
1.58195 0.301115 0
1.58181 0.367517 0
1.58173 0.433791 0
1.58171 0.5 0
1.58173 0.566209 0
1.58181 0.632483 0
1.58195 0.698885 0
1.58215 0.765463 0
1.58242 0.832249 0
1.58275 0.89924 0
1.58313 0.966392 0
1.74959 0.0341677 0
1.74885 0.102235 0
1.74829 0.169714 0
1.74791 0.236575 0
1.74766 0.302905 0
1.74751 0.368829 0
1.74744 0.434482 0
1.74741 0.5 0
1.74744 0.565518 0
1.74751 0.631171 0
1.74766 0.697095 0
1.74791 0.763425 0
1.74829 0.830286 0
1.74885 0.897765 0
1.74959 0.965832 0
1.91555 0.0363295 0
1.91388 0.107253 0
1.91312 0.175401 0
1.91283 0.241837 0
1.91276 0.307169 0
1.91277 0.371793 0
1.9128 0.435995 0
1.91281 0.5 0
1.9128 0.564005 0
1.91277 0.628207 0
1.91276 0.692831 0
1.91283 0.758163 0
1.91312 0.824599 0
1.91388 0.892747 0
1.91555 0.963671 0
2.07838 0.0591504 0
2.07417 0.125973 0
2.07554 0.190391 0
2.07663 0.253364 0
2.07743 0.315525 0
2.07798 0.377223 0
2.07829 0.438667 0
2.0784 0.5 0
2.07829 0.561333 0
2.07798 0.622777 0
2.07743 0.684475 0
2.07663 0.746636 0
2.07554 0.809609 0
2.07417 0.874027 0
2.07838 0.94085 0
2.24384 0.096456 0
2.23911 0.153168 0
2.24152 0.210396 0
2.24318 0.267878 0
2.24431 0.325632 0
2.24503 0.383617 0
2.24544 0.441767 0
2.24557 0.5 0
2.24544 0.558233 0
2.24503 0.616383 0
2.24431 0.674368 0
2.24318 0.732122 0
2.24152 0.789604 0
2.23911 0.846832 0
2.24384 0.903544 0
2.41462 0.118677 0
2.41292 0.170231 0
2.41356 0.223198 0
2.41406 0.277268 0
2.41444 0.332207 0
2.4147 0.387788 0
2.41485 0.44379 0
2.4149 0.5 0
2.41485 0.55621 0
2.4147 0.612212 0
2.41444 0.667793 0
2.41406 0.722732 0
2.41356 0.776802 0
2.41292 0.829769 0
2.41462 0.881323 0
2.58538 0.118677 0
2.58708 0.170231 0
2.58644 0.223198 0
2.58594 0.277268 0
2.58556 0.332207 0
2.5853 0.387788 0
2.58515 0.44379 0
2.5851 0.5 0
2.58515 0.55621 0
2.5853 0.612212 0
2.58556 0.667793 0
2.58594 0.722732 0
2.58644 0.776802 0
2.58708 0.829769 0
2.58538 0.881323 0
2.75616 0.096456 0
2.76089 0.153168 0
2.75848 0.210396 0
2.75682 0.267878 0
2.75569 0.325632 0
2.75497 0.383617 0
2.75456 0.441767 0
2.75443 0.5 0
2.75456 0.558233 0
2.75497 0.616383 0
2.75569 0.674368 0
2.75682 0.732122 0
2.75848 0.789604 0
2.76089 0.846832 0
2.75616 0.903544 0
2.92162 0.0591504 0
2.92583 0.125973 0
2.92446 0.190391 0
2.92337 0.253364 0
2.92257 0.315525 0
2.92202 0.377223 0
2.92171 0.438667 0
2.9216 0.5 0
2.92171 0.561333 0
2.92202 0.622777 0
2.92257 0.684475 0
2.92337 0.746636 0
2.92446 0.809609 0
2.92583 0.874027 0
2.92162 0.94085 0
3.08445 0.0363295 0
3.08612 0.107253 0
3.08688 0.175401 0
3.08717 0.241837 0
3.08724 0.307169 0
3.08723 0.371793 0
3.0872 0.435995 0
3.08719 0.5 0
3.0872 0.564005 0
3.08723 0.628207 0
3.08724 0.692831 0
3.08717 0.758163 0
3.08688 0.824599 0
3.08612 0.892747 0
3.08445 0.963671 0
3.25041 0.0341677 0
3.25115 0.102235 0
3.25171 0.169714 0
3.25209 0.236575 0
3.25234 0.302905 0
3.25249 0.368829 0
3.25256 0.434482 0
3.25259 0.5 0
3.25256 0.565518 0
3.25249 0.631171 0
3.25234 0.697095 0
3.25209 0.763425 0
3.25171 0.830286 0
3.25115 0.897765 0
3.25041 0.965832 0
3.41687 0.0336075 0
3.41725 0.10076 0
3.41758 0.167751 0
3.41785 0.234537 0
3.41805 0.301115 0
3.41819 0.367517 0
3.41827 0.433791 0
3.41829 0.5 0
3.41827 0.566209 0
3.41819 0.632483 0
3.41805 0.698885 0
3.41785 0.765463 0
3.41758 0.832249 0
3.41725 0.89924 0
3.41687 0.966392 0
3.58344 0.0334298 0
3.58366 0.10027 0
3.58385 0.16706 0
3.58402 0.233778 0
3.58415 0.300419 0
3.58425 0.36699 0
3.58431 0.433509 0
3.58433 0.5 0
3.58431 0.566491 0
3.58425 0.63301 0
3.58415 0.699581 0
3.58402 0.766222 0
3.58385 0.83294 0
3.58366 0.89973 0
3.58344 0.96657 0
3.75006 0.0333682 0
3.75019 0.100098 0
3.7503 0.16681 0
3.75041 0.233497 0
3.75049 0.300156 0
3.75055 0.366788 0
3.75058 0.433399 0
3.7506 0.5 0
3.75058 0.566601 0
3.75055 0.633212 0
3.75049 0.699844 0
3.75041 0.766503 0
3.7503 0.83319 0
3.75019 0.899902 0
3.75006 0.966632 0
3.9167 0.0333461 0
3.91678 0.100036 0
3.91685 0.166719 0
3.91691 0.233394 0
3.91696 0.300058 0
3.91699 0.366712 0
3.91702 0.433358 0
3.91702 0.5 0
3.91702 0.566642 0
3.91699 0.633288 0
3.91696 0.699942 0
3.91691 0.766606 0
3.91685 0.833281 0
3.91678 0.899964 0
3.9167 0.966654 0
4.08336 0.033338 0
4.0834 0.100013 0
4.08344 0.166686 0
4.08348 0.233356 0
4.08351 0.300021 0
4.08353 0.366683 0
4.08354 0.433342 0
4.08355 0.5 0
4.08354 0.566658 0
4.08353 0.633317 0
4.08351 0.699979 0
4.08348 0.766644 0
4.08344 0.833314 0
4.0834 0.899987 0
4.08336 0.966662 0
4.25001 0.0333351 0
4.25004 0.100005 0
4.25006 0.166674 0
4.25008 0.233342 0
4.2501 0.300008 0
4.25012 0.366673 0
4.25012 0.433337 0
4.25013 0.5 0
4.25012 0.566663 0
4.25012 0.633327 0
4.2501 0.699992 0
4.25008 0.766658 0
4.25006 0.833326 0
4.25004 0.899995 0
4.25001 0.966665 0
4.41667 0.033334 0
4.41669 0.100002 0
4.4167 0.166669 0
4.41672 0.233336 0
4.41673 0.300003 0
4.41673 0.366669 0
4.41674 0.433335 0
4.41674 0.5 0
4.41674 0.566665 0
4.41673 0.633331 0
4.41673 0.699997 0
4.41672 0.766664 0
4.4167 0.833331 0
4.41669 0.899998 0
4.41667 0.966666 0
4.58334 0.0333336 0
4.58335 0.100001 0
4.58335 0.166668 0
4.58336 0.233334 0
4.58337 0.300001 0
4.58337 0.366667 0
4.58337 0.433334 0
4.58338 0.5 0
4.58337 0.566666 0
4.58337 0.633333 0
4.58337 0.699999 0
4.58336 0.766666 0
4.58335 0.833332 0
4.58335 0.899999 0
4.58334 0.966666 0
4.75 0.0333334 0
4.75001 0.1 0
4.75001 0.166667 0
4.75001 0.233334 0
4.75002 0.3 0
4.75002 0.366667 0
4.75002 0.433333 0
4.75002 0.5 0
4.75002 0.566667 0
4.75002 0.633333 0
4.75002 0.7 0
4.75001 0.766666 0
4.75001 0.833333 0
4.75001 0.9 0
4.75 0.966667 0
4.91667 0.0333334 0
4.91667 0.1 0
4.91667 0.166667 0
4.91667 0.233333 0
4.91667 0.3 0
4.91667 0.366667 0
4.91667 0.433333 0
4.91667 0.5 0
4.91667 0.566667 0
4.91667 0.633333 0
4.91667 0.7 0
4.91667 0.766667 0
4.91667 0.833333 0
4.91667 0.9 0
4.91667 0.966667 0
POINT_DATA 450
SCALARS pressure float 1
LOOKUP_TABLE default
83290
83289.8
83289.2
83288.8
83288.2
83288
83287.5
83287.7
83287.6
83288
83288.2
83288.8
83289.2
83289.8
83290
82455.9
82455.2
82454.4
82453.3
82452.6
82451.8
82451.7
82451.3
82451.7
82451.9
82452.7
82453.4
82454.5
82455.3
82456
83177.3
83177.3
83177.1
83177.2
83176.8
83177.2
83176.7
83177.1
83176.7
83177.1
83176.8
83177.1
83176.9
83177.2
83177.2
82531.3
82530.8
82530.9
82529.9
82530.3
82529
82529.8
82528.7
82529.8
82529
82530.2
82529.8
82530.8
82530.7
82531.2
83166.8
83166.9
83166.5
83167.2
83166.5
83167.5
83166.6
83167.6
83166.4
83167.3
83166.2
83166.8
83166
83166.4
83166.3
82497.5
82494.8
82494.4
82489.3
82489.8
82484.2
82486.4
82482
82486.3
82484
82489.6
82489.1
82494.1
82494.5
82497.1
83244.5
83242.7
83240.8
83240.6
83238.5
83239.1
83236.9
83238.2
83236.6
83238.4
83237.6
83239.3
83239.5
83241.2
83242.9
82435.1
82417.8
82411.2
82380.5
82375.8
82345.6
82350.3
82331.5
82350.1
82345.3
82375.1
82379.9
82410.3
82417
82434
83416.3
83391.6
83380.6
83359.6
83350
83332.8
83329.6
83321.3
83328.8
83330.6
83347.7
83355.8
83377.6
83387.8
83412.2
82601.5
82455.8
82399.8
82189.5
82133.9
81970.4
81969.6
81889.9
81969.4
81971
82132.8
82189.2
82397
82453.6
82598
84012.3
83714.6
83643.3
83419.9
83368
83210.3
83215.2
83133.5
83214.1
83204.2
83364.6
83409.1
83639
83704.4
84007
85341
83268.6
82784
81396.2
81066.9
80356.9
80301.6
80034.6
80304.4
80365.7
81073.9
81406
82782.8
83251.9
85321.4
85709.7
83545.1
82903.4
81829.7
81775.1
81174.9
81313.9
80986.9
81316.5
81158.1
81783.9
81797
82926.2
83503.5
85750.5
65870.2
68274.3
67377.5
68714.9
68485.1
69108.8
69020.1
69261.3
69025.5
69140.3
68501
68779.6
67405.9
68376.3
65902.5
64797.7
69213
68829.9
71248.3
70955.8
72329.9
71873.9
72670.3
71897.7
72347.6
71026.6
71290.5
68939.4
69291.5
64913.6
32741.4
37086
37700.3
40084.4
41064.1
41818
42744.1
42394.9
42736.5
41819.1
41030.8
40079.5
37615.9
37043.5
32555.3
31106.9
35714
30906.6
35613.6
31387.7
35708.1
31776.5
35744.7
31684.3
35632.2
31115.1
35432.5
30466.3
35358.2
30512
63563.4
64835.3
59420.3
62187.8
56943.5
60872.3
55783.4
60470.5
55749
60898.4
56852.4
62259.9
59308.5
65021.8
63516.6
77616.2
76959.6
75909
76263.1
74996.6
75902.7
74601.6
75811.1
74642.4
75977.9
75122.9
76424.9
76133.7
77238.4
77993.3
66213.2
66701.9
66031.9
66749
65841
66752.2
65740.2
66744.2
65733.3
66735.7
65820.5
66716.1
65998.4
66654.8
66180.5
75862.2
75598
75191.6
75189.7
74642.5
74931
74371.3
74854.8
74392.7
74967.7
74704.7
75259.6
75286.3
75691.7
75974.5
69552.2
69729.3
69564.3
69863.8
69587.2
69954.8
69601.2
69984.7
69600.4
69950
69585.4
69855.7
69563.3
69721.6
69553.4
73635
73608.5
73436.9
73469.1
73247.5
73369.8
73144.5
73337
73149.3
73376.8
73260.5
73480.7
73453
73619.2
73647.2
71335.2
71407
71352.8
71479
71378.8
71526.9
71393.1
71543.8
71394.4
71528
71382.7
71481.6
71360
71412.5
71344.8
72644.3
72651.2
72579
72609.6
72518.5
72579.1
72485.4
72568.1
72485.5
72578.3
72518.3
72607.2
72577
72645.8
72639.3
71987.6
72015.4
71991.5
72042.8
72001.1
72060.5
72006.2
72066.8
72006.9
72061.2
72003
72044.3
71994.9
72018.2
71992
72358.9
72366.2
72337.4
72355.6
72318.7
72347.5
72308.5
72344.4
72308.2
72346.5
72317.5
72353.3
72335
72362.3
72355.1
72190.2
72201
72189.1
72209.7
72190.9
72215.4
72191.9
72217.4
72192.1
72215.5
72191.4
72210
72190
72201.6
72191.4
72308
72312.3
72301.8
72310.3
72296.2
72308.3
72293.2
72307.6
72293
72307.9
72295.6
72309.3
72300.7
72310.6
72306.5
72253.8
72259.9
72256
72265.4
72258.3
72269.1
72259.8
72270.6
72260
72269.4
72258.8
72266
72257
72260.8
72255.1
SCALARS density float 1
LOOKUP_TABLE default
1.3103
1.31036
1.31044
1.3105
1.31053
1.31054
1.31054
1.31054
1.31054
1.31054
1.31053
1.3105
1.31043
1.31036
1.3103
1.30108
1.30109
1.30111
1.30113
1.30114
1.30115
1.30115
1.30115
1.30115
1.30115
1.30114
1.30113
1.30111
1.30109
1.30108
1.30886
1.30895
1.30907
1.30917
1.30921
1.30922
1.30922
1.30922
1.30921
1.30922
1.3092
1.30916
1.30906
1.30894
1.30886
1.30215
1.30212
1.30209
1.30206
1.30208
1.30208
1.3021
1.30209
1.3021
1.30208
1.30208
1.30206
1.30209
1.30211
1.30215
1.30838
1.30855
1.30878
1.30895
1.30901
1.30903
1.30901
1.30902
1.30901
1.30902
1.30899
1.30893
1.30876
1.30854
1.30838
1.30235
1.30216
1.30196
1.30179
1.30178
1.30175
1.30179
1.30175
1.30179
1.30175
1.30179
1.3018
1.30197
1.30216
1.30233
1.30827
1.30866
1.30917
1.30952
1.3096
1.30961
1.30956
1.30957
1.30956
1.30959
1.30957
1.30947
1.30913
1.30864
1.30828
1.30317
1.30247
1.30174
1.30104
1.30093
1.30064
1.30073
1.30053
1.30073
1.30064
1.30094
1.30107
1.30176
1.30246
1.30312
1.3075
1.30836
1.30967
1.31022
1.31029
1.31008
1.31001
1.3099
1.30999
1.31003
1.31021
1.31009
1.30956
1.30832
1.30754
1.30913
1.30599
1.30341
1.30012
1.29934
1.29757
1.2976
1.29672
1.29761
1.2976
1.29939
1.30022
1.30347
1.30596
1.30897
1.30592
1.30664
1.31007
1.30937
1.30914
1.30735
1.3074
1.30645
1.30737
1.30722
1.30898
1.30903
1.30981
1.30652
1.30616
1.35307
1.32347
1.31248
1.29422
1.28981
1.28154
1.28079
1.27775
1.28085
1.2817
1.29003
1.29457
1.31271
1.32325
1.35245
1.30906
1.29673
1.29944
1.29006
1.29003
1.28292
1.28467
1.28066
1.28465
1.2826
1.28986
1.28919
1.29915
1.2962
1.31045
1.12218
1.14321
1.12383
1.14139
1.13831
1.14685
1.14543
1.14901
1.14553
1.14734
1.13868
1.1426
1.12469
1.14487
1.12262
1.08816
1.14738
1.14677
1.17323
1.17097
1.1851
1.18061
1.18846
1.18083
1.18511
1.17154
1.1731
1.14749
1.14803
1.09179
0.691151
0.744366
0.741793
0.777878
0.787715
0.800114
0.810491
0.80768
0.810407
0.800253
0.787343
0.778232
0.740995
0.744901
0.687757
0.630808
0.715045
0.649222
0.716984
0.660311
0.720254
0.66695
0.721026
0.665644
0.719102
0.656393
0.714211
0.64275
0.709883
0.623867
1.0133
1.06552
1.01335
1.04764
0.986251
1.03475
0.973209
1.03046
0.972735
1.0349
0.984958
1.04797
1.01169
1.06868
1.01606
1.158
1.19162
1.20678
1.21447
1.20395
1.2147
1.20156
1.21461
1.20196
1.21529
1.2051
1.21552
1.20903
1.19571
1.16572
1.0524
1.07858
1.09259
1.10455
1.09621
1.10741
1.09678
1.10814
1.09663
1.10701
1.09569
1.10352
1.09192
1.07899
1.05478
1.16023
1.17821
1.19677
1.20308
1.19911
1.20316
1.19793
1.20323
1.1981
1.20335
1.19946
1.20321
1.19763
1.18051
1.16448
1.09375
1.1134
1.13188
1.14215
1.14069
1.1456
1.14244
1.14682
1.14236
1.14535
1.1403
1.14143
1.13165
1.11446
1.09631
1.14005
1.15702
1.17538
1.18405
1.18335
1.18541
1.18363
1.1859
1.18361
1.18528
1.1831
1.18355
1.17543
1.15842
1.14277
1.11571
1.13245
1.15098
1.16123
1.16194
1.16419
1.16332
1.16518
1.16326
1.16399
1.16156
1.16064
1.15094
1.13375
1.11821
1.13098
1.1463
1.1643
1.1742
1.17527
1.17644
1.17593
1.17704
1.17585
1.17621
1.17482
1.17356
1.16421
1.14752
1.13328
1.1245
1.13918
1.15713
1.16766
1.16952
1.1706
1.17044
1.17131
1.17037
1.17038
1.16908
1.16707
1.15713
1.14048
1.12681
1.12917
1.14294
1.16044
1.17101
1.17322
1.1739
1.17382
1.1744
1.17373
1.17366
1.17272
1.17039
1.16041
1.14417
1.13134
1.12809
1.14124
1.15849
1.16936
1.17206
1.17266
1.17266
1.17309
1.17257
1.17241
1.17157
1.16878
1.15853
1.14252
1.13025
1.12965
1.14216
1.15904
1.17004
1.17308
1.17355
1.17355
1.17385
1.17347
1.17329
1.17257
1.16946
1.1591
1.14342
1.13174
1.13009
1.14209
1.15864
1.16979
1.17319
1.17363
1.17362
1.17381
1.17353
1.17337
1.17267
1.16924
1.15874
1.14335
1.13214
SCALARS u-velocity float 1
LOOKUP_TABLE default
157.042
157.095
157.171
157.237
157.275
157.294
157.3
157.302
157.298
157.291
157.27
157.231
157.166
157.093
157.043
157.723
157.703
157.677
157.658
157.65
157.647
157.648
157.647
157.648
157.648
157.651
157.659
157.678
157.703
157.722
157.483
157.58
157.714
157.826
157.887
157.917
157.925
157.929
157.923
157.912
157.879
157.816
157.706
157.578
157.486
157.423
157.319
157.184
157.078
157.027
157.004
156.999
156.993
157
157.009
157.035
157.088
157.192
157.322
157.419
157.538
157.77
158.073
158.317
158.436
158.496
158.51
158.523
158.506
158.487
158.42
158.297
158.058
157.768
157.548
157.64
157.313
156.899
156.587
156.451
156.392
156.377
156.365
156.383
156.406
156.475
156.618
156.925
157.319
157.626
156.908
157.543
158.299
158.881
159.122
159.257
159.284
159.322
159.276
159.237
159.088
158.833
158.263
157.54
156.943
158.622
157.703
156.61
155.853
155.589
155.515
155.5
155.497
155.514
155.553
155.65
155.941
156.681
157.721
158.577
154.639
156.557
158.495
159.928
160.386
160.71
160.763
160.873
160.748
160.667
160.313
159.812
158.402
156.548
154.756
160.351
158.124
155.639
154.441
154.312
154.658
154.76
154.932
154.79
154.744
154.452
154.671
155.825
158.183
160.205
147.19
153.901
158.939
162.385
163.24
164.096
164.265
164.561
164.237
164.009
163.097
162.112
158.693
153.83
147.577
153.005
154.936
151.059
154.033
155.821
158.792
159.576
160.468
159.613
158.937
156.048
154.547
151.512
155.252
152.538
126.078
146.788
164.813
170.774
173.547
175.212
175.621
176.267
175.565
175.059
173.281
170.247
164.258
146.543
126.994
230.901
215.227
212.132
208.341
210.54
207.816
209.621
207.649
209.646
207.885
210.683
208.69
212.558
215.434
230.859
231.182
225.342
225.257
219.408
217.603
214.293
213.375
212.341
213.224
213.978
217.102
218.578
224.356
224.618
232.529
369.694
346.619
334.662
327.9
321.974
319.683
315.743
317.103
315.809
319.812
322.224
328.355
335.388
347.745
370.179
343.122
344.437
365.703
349.615
369.64
351.267
369.84
351.453
370.266
351.512
370.871
350.136
367.551
345.612
346.89
144.662
200.783
220.903
224.82
237.625
233.76
244.961
236.051
244.965
233.471
237.54
223.962
220.494
200.59
148.815
70.0827
151.093
171.713
184.797
185.426
191.724
190.153
193.275
189.875
191.193
184.455
183.44
170.129
150.891
73.6702
144.293
181.843
198.577
207.422
207.168
212.021
210.449
213.26
210.367
211.847
206.831
206.86
198.168
182.878
148.155
108.451
149.799
171.599
183.324
183.667
189.103
187.504
190.703
187.319
188.713
182.977
182.315
170.794
150.634
112.307
137.821
167.796
187.671
196.999
197.294
200.995
199.857
202.214
199.762
200.77
196.867
196.318
187.29
168.927
141.247
124.631
154.001
176.002
186.647
187.855
191.239
190.643
192.653
190.525
190.958
187.333
185.872
175.618
155.23
128.11
135.152
160.393
181.604
191.72
193.211
195.654
195.428
196.867
195.328
195.402
192.723
191.003
181.299
161.616
138.277
131.924
155.786
177.574
188.393
190.526
192.624
192.727
193.863
192.627
192.366
190.022
187.686
177.343
157.104
135.03
135.559
157.358
178.722
189.646
192.123
193.787
194.054
194.901
193.953
193.522
191.602
188.944
178.514
158.645
138.451
135.46
155.986
177.283
188.637
191.565
193.011
193.4
194.065
193.3
192.741
191.035
187.951
177.129
157.307
138.279
136.943
156.196
177.126
188.723
191.987
193.253
193.677
194.198
193.574
192.972
191.44
188.043
176.998
157.499
139.634
137.586
155.816
176.447
188.333
191.947
193.102
193.539
193.95
193.433
192.812
191.39
187.666
176.354
157.12
140.19
138.392
155.747
175.995
188.101
192.018
193.133
193.534
193.871
193.424
192.831
191.45
187.445
175.928
157.036
140.907
SCALARS v-velocity float 1
LOOKUP_TABLE default
-0.0162693
-0.0411083
-0.0536974
-0.0512548
-0.0416952
-0.0277647
-0.013427
0.00154178
0.0164317
0.0304375
0.0437221
0.0523087
0.0537536
0.0406486
0.0159915
0.0139365
0.0347705
0.0452894
0.0430167
0.0351742
0.0236228
0.0116544
-0.00100802
-0.0136269
-0.0253515
-0.0364426
-0.043558
-0.04507
-0.0342042
-0.0136262
-0.026176
-0.0646161
-0.0841073
-0.0793484
-0.06488
-0.0434438
-0.021231
0.00252825
0.0261958
0.047867
0.0683305
0.0812501
0.0843287
0.0639237
0.0257008
0.0419666
0.101787
0.131502
0.122721
0.100184
0.0673083
0.0334814
-0.00274501
-0.0389258
-0.0720515
-0.103734
-0.124208
-0.130702
-0.0999312
-0.0408955
-0.0670509
-0.161823
-0.206687
-0.19039
-0.152802
-0.101687
-0.0493314
0.00589433
0.0610756
0.112015
0.160917
0.194621
0.206519
0.159407
0.0654039
0.115887
0.269488
0.341634
0.311075
0.25114
0.169145
0.0841776
-0.00619032
-0.0968622
-0.179897
-0.259412
-0.314179
-0.338591
-0.263625
-0.112199
-0.164097
-0.382459
-0.469331
-0.41501
-0.316912
-0.208041
-0.0966347
0.0139221
0.125279
0.232541
0.336786
0.424956
0.46753
0.374989
0.158391
0.32507
0.70948
0.86031
0.763433
0.599625
0.410251
0.200502
-0.0126384
-0.228575
-0.432321
-0.618052
-0.769158
-0.850195
-0.691262
-0.311484
-0.305269
-0.708575
-0.721212
-0.5511
-0.312294
-0.181669
-0.0520117
0.030444
0.119519
0.236368
0.361165
0.575207
0.715285
0.687412
0.284058
0.931684
1.99562
2.09283
1.86939
1.38139
0.994276
0.463681
-0.0213245
-0.521931
-1.03177
-1.42153
-1.87832
-2.0672
-1.93952
-0.877148
0.925035
0.460742
1.72771
1.96963
2.05039
1.53031
0.875969
0.0502784
-0.73873
-1.43321
-1.93338
-1.90688
-1.7175
-0.512455
-1.01743
1.6348
7.02186
4.94229
5.10013
3.45623
2.65028
1.19654
-0.0169499
-1.29289
-2.67804
-3.53219
-5.10482
-4.92705
-6.90479
-1.48922
32.6774
33.797
27.6446
23.724
16.2285
11.4803
5.35095
0.00840158
-5.19123
-11.4614
-16.0289
-23.6561
-27.3276
-33.7486
-32.6414
45.9841
27.0037
22.3313
14.6517
11.5338
6.70942
3.5376
0.0250014
-3.59008
-6.64154
-11.5757
-14.5713
-22.402
-26.8918
-45.9604
24.0018
14.47
17.3593
10.4717
10.111
5.42349
3.28722
-0.102902
-3.41166
-5.62662
-10.1989
-10.6346
-17.3421
-14.553
-24.1375
-16.6533
-22.2454
-8.17855
-9.64103
-3.46256
-3.38031
-1.00602
-0.242905
0.658292
2.92047
3.01688
9.26743
7.47729
22.0694
15.8569
-40.2122
-46.3482
-21.4674
-28.9232
-11.4284
-13.9218
-3.71997
0.0379501
3.57892
14.1207
11.5544
29.5189
22.4305
47.7788
42.2227
-20.2881
-24.421
-12.2897
-15.246
-6.4625
-7.00779
-1.86796
0.83279
2.45324
8.6934
7.13966
17.024
13.229
26.4822
21.6953
-1.43415
-1.9332
-0.739339
-2.59408
-0.769994
-1.41178
-0.380671
0.109237
0.0120853
1.62107
0.392745
2.78165
0.350836
2.11728
1.03793
-8.8861
-7.81036
-6.88783
-5.89491
-4.36754
-2.99027
-1.37012
0.298727
1.59718
3.56072
4.56
6.38005
6.99042
8.04898
8.68116
-1.63807
0.884856
0.0640517
0.810849
-0.032367
0.319903
-0.0327555
0.0376067
-0.0786953
-0.247897
-0.0699565
-0.726931
-0.133798
-0.828203
1.49461
-3.00674
-1.83178
-2.61465
-1.31348
-1.80576
-0.803462
-0.615178
0.0479658
0.612885
0.883755
1.78174
1.35733
2.53723
1.75452
2.83146
-1.12475
0.452848
-0.1007
0.758193
-0.104649
0.302717
-0.0488239
0.00615801
0.017484
-0.290906
0.0794068
-0.728543
0.0857025
-0.459459
1.04949
-1.35534
-0.641409
-1.01814
-0.159936
-0.67991
-0.18026
-0.258179
-0.0144746
0.210025
0.147227
0.628686
0.127511
0.949062
0.557837
1.26222
-0.752593
-0.0342069
-0.195608
0.396527
-0.103389
0.12521
-0.0599867
-0.010714
0.0321802
-0.145821
0.0821947
-0.401228
0.174144
-0.00417452
0.702152
-0.720735
-0.400706
-0.457296
0.0575662
-0.249389
-0.0460218
-0.118825
-0.0205968
0.0763198
0.00494659
0.211442
-0.0889797
0.410614
0.33592
0.668118
-0.495012
-0.251471
-0.208543
0.181279
-0.0619397
0.0298868
-0.0544456
-0.0153159
0.0246983
-0.0587959
0.0398042
-0.197672
0.180997
0.205572
0.459001
-0.433224
-0.352376
-0.269534
0.0641523
-0.0879739
-0.0238037
-0.0674153
-0.0182422
0.0323463
-0.0108557
0.0601843
-0.0888806
0.233798
0.300686
0.399465
-0.331973
-0.31278
-0.195799
0.0781981
-0.0243203
-0.00566567
-0.0460811
-0.01573
0.0160806
-0.0231529
0.00264348
-0.0973513
0.166332
0.268975
0.305312
-0.297103
-0.342262
-0.211532
0.035207
-0.0255349
-0.0210167
-0.0479866
-0.0164934
0.0163022
-0.00902392
0.00218038
-0.0569518
0.179263
0.297537
0.271874
SCALARS Mach float 1
LOOKUP_TABLE default
0.401762
0.40189
0.402073
0.402232
0.402328
0.402376
0.402392
0.402398
0.402389
0.402368
0.402316
0.402218
0.402062
0.401886
0.401764
0.406975
0.406923
0.406855
0.406806
0.406785
0.40678
0.40678
0.406779
0.406781
0.406781
0.406789
0.40681
0.406859
0.406923
0.406972
0.403386
0.403621
0.403945
0.404217
0.404369
0.404442
0.404464
0.404474
0.404459
0.40443
0.40435
0.404195
0.403928
0.403618
0.403395
0.405849
0.405588
0.405244
0.404975
0.404843
0.404785
0.404766
0.404757
0.404772
0.404797
0.404863
0.405002
0.405265
0.405594
0.40584
0.403625
0.404195
0.404937
0.405532
0.40583
0.405979
0.406019
0.406049
0.40601
0.405956
0.405793
0.405485
0.404902
0.404192
0.403654
0.40646
0.405653
0.404619
0.403852
0.403501
0.403368
0.403319
0.403305
0.403334
0.403405
0.403562
0.403933
0.404685
0.405671
0.406429
0.401841
0.403412
0.405276
0.40671
0.407321
0.407663
0.407743
0.407837
0.407725
0.407617
0.407242
0.4066
0.405192
0.403411
0.401934
0.409018
0.406805
0.404116
0.402346
0.401689
0.401618
0.401551
0.40162
0.401589
0.401713
0.401847
0.402569
0.404297
0.406854
0.408913
0.39574
0.40058
0.405363
0.40899
0.410172
0.411076
0.411231
0.411549
0.411197
0.41098
0.410004
0.408724
0.405148
0.400571
0.396043
0.412127
0.407274
0.40141
0.39933
0.399236
0.400796
0.40105
0.401826
0.401128
0.401014
0.399594
0.399909
0.401888
0.407436
0.411784
0.375573
0.39328
0.405817
0.415285
0.417642
0.420502
0.420903
0.422015
0.420838
0.420313
0.417306
0.414667
0.405239
0.39314
0.37654
0.380563
0.394852
0.387522
0.401313
0.407365
0.418263
0.420547
0.424095
0.42063
0.418595
0.40791
0.402572
0.388649
0.395717
0.379529
0.328623
0.386776
0.430318
0.448487
0.453558
0.459853
0.459446
0.462577
0.459284
0.459556
0.452826
0.447343
0.428761
0.38631
0.330585
0.731865
0.656194
0.655128
0.630289
0.638255
0.624197
0.630173
0.622097
0.630198
0.62412
0.638514
0.630693
0.656064
0.655808
0.731401
0.739761
0.677211
0.67963
0.642103
0.63871
0.618794
0.619147
0.610659
0.618554
0.617825
0.63678
0.639547
0.676175
0.674487
0.74217
2.07914
1.76678
1.69184
1.57008
1.5131
1.47714
1.43371
1.44831
1.4342
1.47757
1.51522
1.57194
1.69824
1.77282
2.09275
2.08434
1.83805
2.1857
1.85543
2.17104
1.85263
2.1472
1.85021
2.1549
1.85742
2.19433
1.86679
2.22398
1.86122
2.14062
0.48646
0.650378
0.762011
0.746118
0.847759
0.787539
0.888567
0.799204
0.889092
0.786535
0.848761
0.74316
0.762135
0.648701
0.500319
0.197609
0.421711
0.479495
0.513244
0.521536
0.533656
0.536776
0.538304
0.535755
0.53179
0.518119
0.508724
0.473923
0.419676
0.206512
0.46285
0.573505
0.6252
0.64588
0.651871
0.65913
0.662393
0.662739
0.662219
0.658816
0.651079
0.644634
0.624277
0.57689
0.474735
0.308982
0.424216
0.483462
0.515149
0.518853
0.532284
0.530918
0.537045
0.53028
0.531011
0.516613
0.512049
0.480717
0.425898
0.31914
0.422417
0.508992
0.565306
0.589416
0.591863
0.600065
0.599007
0.603251
0.598748
0.599482
0.590687
0.587599
0.564212
0.512204
0.43239
0.36356
0.44599
0.506298
0.534841
0.539268
0.548049
0.547592
0.552111
0.547241
0.547249
0.53778
0.532689
0.50513
0.449247
0.373229
0.404904
0.4767
0.535584
0.562413
0.567014
0.573032
0.57312
0.57627
0.572836
0.572338
0.565658
0.560442
0.534666
0.480042
0.413772
0.388991
0.45624
0.516273
0.545297
0.551566
0.557129
0.557908
0.560613
0.557637
0.556439
0.550211
0.543409
0.515628
0.459874
0.397757
0.402682
0.464321
0.523341
0.552621
0.559553
0.563906
0.564935
0.566954
0.564657
0.563185
0.558136
0.550705
0.522718
0.467841
0.410836
0.400519
0.458397
0.517142
0.547706
0.555825
0.559746
0.561045
0.562695
0.560775
0.559024
0.554407
0.545868
0.516707
0.462043
0.408472
0.405572
0.459882
0.517651
0.548893
0.557817
0.561257
0.562581
0.563891
0.562299
0.560498
0.556344
0.547051
0.517263
0.463458
0.413141
0.406862
0.458227
0.515142
0.547221
0.557052
0.560246
0.561569
0.562637
0.561284
0.559467
0.555557
0.545419
0.51486
0.46181
0.414184
0.409317
0.458204
0.514074
0.546774
0.557379
0.560467
0.561668
0.562559
0.561369
0.559654
0.555848
0.544992
0.513852
0.461738
0.416376
