# vtk DataFile Version 3.0
Structured Grid Example
ASCII
DATASET STRUCTURED_GRID
DIMENSIONS 15 30 1
POINTS 450 FLOAT
0.0833327 0.0333334 0
0.0833313 0.1 0
0.0833301 0.166667 0
0.083329 0.233333 0
0.0833281 0.3 0
0.0833274 0.366667 0
0.083327 0.433333 0
0.0833268 0.5 0
0.083327 0.566667 0
0.0833274 0.633333 0
0.0833281 0.7 0
0.083329 0.766667 0
0.0833301 0.833333 0
0.0833313 0.9 0
0.0833327 0.966667 0
0.249998 0.0333334 0
0.249993 0.1 0
0.249989 0.166667 0
0.249986 0.233334 0
0.249983 0.3 0
0.24998 0.366667 0
0.249979 0.433333 0
0.249979 0.5 0
0.249979 0.566667 0
0.24998 0.633333 0
0.249983 0.7 0
0.249986 0.766666 0
0.249989 0.833333 0
0.249993 0.9 0
0.249998 0.966667 0
0.416662 0.0333336 0
0.416654 0.100001 0
0.416646 0.166668 0
0.416639 0.233334 0
0.416633 0.300001 0
0.416628 0.366667 0
0.416626 0.433334 0
0.416625 0.5 0
0.416626 0.566666 0
0.416628 0.633333 0
0.416633 0.699999 0
0.416639 0.766666 0
0.416646 0.833332 0
0.416654 0.899999 0
0.416662 0.966666 0
0.583326 0.033334 0
0.58331 0.100002 0
0.583296 0.166669 0
0.583284 0.233336 0
0.583273 0.300003 0
0.583266 0.366669 0
0.583261 0.433335 0
0.583259 0.5 0
0.583261 0.566665 0
0.583266 0.633331 0
0.583273 0.699997 0
0.583284 0.766664 0
0.583296 0.833331 0
0.58331 0.899998 0
0.583326 0.966666 0
0.749987 0.0333351 0
0.749961 0.100005 0
0.749937 0.166674 0
0.749915 0.233342 0
0.749898 0.300008 0
0.749884 0.366673 0
0.749876 0.433337 0
0.749874 0.5 0
0.749876 0.566663 0
0.749884 0.633327 0
0.749898 0.699992 0
0.749915 0.766658 0
0.749937 0.833326 0
0.749961 0.899995 0
0.749987 0.966665 0
0.916644 0.033338 0
0.916601 0.100013 0
0.91656 0.166686 0
0.916524 0.233356 0
0.916494 0.300021 0
0.916472 0.366683 0
0.916458 0.433342 0
0.916454 0.5 0
0.916458 0.566658 0
0.916472 0.633317 0
0.916494 0.699979 0
0.916524 0.766644 0
0.91656 0.833314 0
0.916601 0.899987 0
0.916644 0.966662 0
1.0833 0.0333461 0
1.08322 0.100036 0
1.08315 0.166719 0
1.08309 0.233394 0
1.08304 0.300058 0
1.08301 0.366712 0
1.08298 0.433358 0
1.08298 0.5 0
1.08298 0.566642 0
1.08301 0.633288 0
1.08304 0.699942 0
1.08309 0.766606 0
1.08315 0.833281 0
1.08322 0.899964 0
1.0833 0.966654 0
1.24994 0.0333682 0
1.24981 0.100098 0
1.2497 0.16681 0
1.24959 0.233497 0
1.24951 0.300156 0
1.24945 0.366788 0
1.24942 0.433399 0
1.2494 0.5 0
1.24942 0.566601 0
1.24945 0.633212 0
1.24951 0.699844 0
1.24959 0.766503 0
1.2497 0.83319 0
1.24981 0.899902 0
1.24994 0.966632 0
1.41656 0.0334298 0
1.41634 0.10027 0
1.41615 0.16706 0
1.41598 0.233778 0
1.41585 0.300419 0
1.41575 0.36699 0
1.41569 0.433509 0
1.41567 0.5 0
1.41569 0.566491 0
1.41575 0.63301 0
1.41585 0.699581 0
1.41598 0.766222 0
1.41615 0.83294 0
1.41634 0.89973 0
1.41656 0.96657 0
1.58313 0.0336075 0
1.58275 0.10076 0
1.58242 0.167751 0
1.58215 0.234537 0
1.58195 0.301115 0
1.58181 0.367517 0
1.58173 0.433791 0
1.58171 0.5 0
1.58173 0.566209 0
1.58181 0.632483 0
1.58195 0.698885 0
1.58215 0.765463 0
1.58242 0.832249 0
1.58275 0.89924 0
1.58313 0.966392 0
1.74959 0.0341677 0
1.74885 0.102235 0
1.74829 0.169714 0
1.74791 0.236575 0
1.74766 0.302905 0
1.74751 0.368829 0
1.74744 0.434482 0
1.74741 0.5 0
1.74744 0.565518 0
1.74751 0.631171 0
1.74766 0.697095 0
1.74791 0.763425 0
1.74829 0.830286 0
1.74885 0.897765 0
1.74959 0.965832 0
1.91555 0.0363295 0
1.91388 0.107253 0
1.91312 0.175401 0
1.91283 0.241837 0
1.91276 0.307169 0
1.91277 0.371793 0
1.9128 0.435995 0
1.91281 0.5 0
1.9128 0.564005 0
1.91277 0.628207 0
1.91276 0.692831 0
1.91283 0.758163 0
1.91312 0.824599 0
1.91388 0.892747 0
1.91555 0.963671 0
2.07838 0.0591504 0
2.07417 0.125973 0
2.07554 0.190391 0
2.07663 0.253364 0
2.07743 0.315525 0
2.07798 0.377223 0
2.07829 0.438667 0
2.0784 0.5 0
2.07829 0.561333 0
2.07798 0.622777 0
2.07743 0.684475 0
2.07663 0.746636 0
2.07554 0.809609 0
2.07417 0.874027 0
2.07838 0.94085 0
2.24384 0.096456 0
2.23911 0.153168 0
2.24152 0.210396 0
2.24318 0.267878 0
2.24431 0.325632 0
2.24503 0.383617 0
2.24544 0.441767 0
2.24557 0.5 0
2.24544 0.558233 0
2.24503 0.616383 0
2.24431 0.674368 0
2.24318 0.732122 0
2.24152 0.789604 0
2.23911 0.846832 0
2.24384 0.903544 0
2.41462 0.118677 0
2.41292 0.170231 0
2.41356 0.223198 0
2.41406 0.277268 0
2.41444 0.332207 0
2.4147 0.387788 0
2.41485 0.44379 0
2.4149 0.5 0
2.41485 0.55621 0
2.4147 0.612212 0
2.41444 0.667793 0
2.41406 0.722732 0
2.41356 0.776802 0
2.41292 0.829769 0
2.41462 0.881323 0
2.58538 0.118677 0
2.58708 0.170231 0
2.58644 0.223198 0
2.58594 0.277268 0
2.58556 0.332207 0
2.5853 0.387788 0
2.58515 0.44379 0
2.5851 0.5 0
2.58515 0.55621 0
2.5853 0.612212 0
2.58556 0.667793 0
2.58594 0.722732 0
2.58644 0.776802 0
2.58708 0.829769 0
2.58538 0.881323 0
2.75616 0.096456 0
2.76089 0.153168 0
2.75848 0.210396 0
2.75682 0.267878 0
2.75569 0.325632 0
2.75497 0.383617 0
2.75456 0.441767 0
2.75443 0.5 0
2.75456 0.558233 0
2.75497 0.616383 0
2.75569 0.674368 0
2.75682 0.732122 0
2.75848 0.789604 0
2.76089 0.846832 0
2.75616 0.903544 0
2.92162 0.0591504 0
2.92583 0.125973 0
2.92446 0.190391 0
2.92337 0.253364 0
2.92257 0.315525 0
2.92202 0.377223 0
2.92171 0.438667 0
2.9216 0.5 0
2.92171 0.561333 0
2.92202 0.622777 0
2.92257 0.684475 0
2.92337 0.746636 0
2.92446 0.809609 0
2.92583 0.874027 0
2.92162 0.94085 0
3.08445 0.0363295 0
3.08612 0.107253 0
3.08688 0.175401 0
3.08717 0.241837 0
3.08724 0.307169 0
3.08723 0.371793 0
3.0872 0.435995 0
3.08719 0.5 0
3.0872 0.564005 0
3.08723 0.628207 0
3.08724 0.692831 0
3.08717 0.758163 0
3.08688 0.824599 0
3.08612 0.892747 0
3.08445 0.963671 0
3.25041 0.0341677 0
3.25115 0.102235 0
3.25171 0.169714 0
3.25209 0.236575 0
3.25234 0.302905 0
3.25249 0.368829 0
3.25256 0.434482 0
3.25259 0.5 0
3.25256 0.565518 0
3.25249 0.631171 0
3.25234 0.697095 0
3.25209 0.763425 0
3.25171 0.830286 0
3.25115 0.897765 0
3.25041 0.965832 0
3.41687 0.0336075 0
3.41725 0.10076 0
3.41758 0.167751 0
3.41785 0.234537 0
3.41805 0.301115 0
3.41819 0.367517 0
3.41827 0.433791 0
3.41829 0.5 0
3.41827 0.566209 0
3.41819 0.632483 0
3.41805 0.698885 0
3.41785 0.765463 0
3.41758 0.832249 0
3.41725 0.89924 0
3.41687 0.966392 0
3.58344 0.0334298 0
3.58366 0.10027 0
3.58385 0.16706 0
3.58402 0.233778 0
3.58415 0.300419 0
3.58425 0.36699 0
3.58431 0.433509 0
3.58433 0.5 0
3.58431 0.566491 0
3.58425 0.63301 0
3.58415 0.699581 0
3.58402 0.766222 0
3.58385 0.83294 0
3.58366 0.89973 0
3.58344 0.96657 0
3.75006 0.0333682 0
3.75019 0.100098 0
3.7503 0.16681 0
3.75041 0.233497 0
3.75049 0.300156 0
3.75055 0.366788 0
3.75058 0.433399 0
3.7506 0.5 0
3.75058 0.566601 0
3.75055 0.633212 0
3.75049 0.699844 0
3.75041 0.766503 0
3.7503 0.83319 0
3.75019 0.899902 0
3.75006 0.966632 0
3.9167 0.0333461 0
3.91678 0.100036 0
3.91685 0.166719 0
3.91691 0.233394 0
3.91696 0.300058 0
3.91699 0.366712 0
3.91702 0.433358 0
3.91702 0.5 0
3.91702 0.566642 0
3.91699 0.633288 0
3.91696 0.699942 0
3.91691 0.766606 0
3.91685 0.833281 0
3.91678 0.899964 0
3.9167 0.966654 0
4.08336 0.033338 0
4.0834 0.100013 0
4.08344 0.166686 0
4.08348 0.233356 0
4.08351 0.300021 0
4.08353 0.366683 0
4.08354 0.433342 0
4.08355 0.5 0
4.08354 0.566658 0
4.08353 0.633317 0
4.08351 0.699979 0
4.08348 0.766644 0
4.08344 0.833314 0
4.0834 0.899987 0
4.08336 0.966662 0
4.25001 0.0333351 0
4.25004 0.100005 0
4.25006 0.166674 0
4.25008 0.233342 0
4.2501 0.300008 0
4.25012 0.366673 0
4.25012 0.433337 0
4.25013 0.5 0
4.25012 0.566663 0
4.25012 0.633327 0
4.2501 0.699992 0
4.25008 0.766658 0
4.25006 0.833326 0
4.25004 0.899995 0
4.25001 0.966665 0
4.41667 0.033334 0
4.41669 0.100002 0
4.4167 0.166669 0
4.41672 0.233336 0
4.41673 0.300003 0
4.41673 0.366669 0
4.41674 0.433335 0
4.41674 0.5 0
4.41674 0.566665 0
4.41673 0.633331 0
4.41673 0.699997 0
4.41672 0.766664 0
4.4167 0.833331 0
4.41669 0.899998 0
4.41667 0.966666 0
4.58334 0.0333336 0
4.58335 0.100001 0
4.58335 0.166668 0
4.58336 0.233334 0
4.58337 0.300001 0
4.58337 0.366667 0
4.58337 0.433334 0
4.58338 0.5 0
4.58337 0.566666 0
4.58337 0.633333 0
4.58337 0.699999 0
4.58336 0.766666 0
4.58335 0.833332 0
4.58335 0.899999 0
4.58334 0.966666 0
4.75 0.0333334 0
4.75001 0.1 0
4.75001 0.166667 0
4.75001 0.233334 0
4.75002 0.3 0
4.75002 0.366667 0
4.75002 0.433333 0
4.75002 0.5 0
4.75002 0.566667 0
4.75002 0.633333 0
4.75002 0.7 0
4.75001 0.766666 0
4.75001 0.833333 0
4.75001 0.9 0
4.75 0.966667 0
4.91667 0.0333334 0
4.91667 0.1 0
4.91667 0.166667 0
4.91667 0.233333 0
4.91667 0.3 0
4.91667 0.366667 0
4.91667 0.433333 0
4.91667 0.5 0
4.91667 0.566667 0
4.91667 0.633333 0
4.91667 0.7 0
4.91667 0.766667 0
4.91667 0.833333 0
4.91667 0.9 0
4.91667 0.966667 0
POINT_DATA 450
SCALARS pressure float 1
LOOKUP_TABLE default
94715.4
94715.4
94715.4
94715.3
94715.3
94715.3
94715.2
94715.2
94715.2
94715.2
94715.1
94715.1
94715.1
94715.1
94715.1
94636.6
94636.6
94636.6
94636.5
94636.5
94636.4
94636.4
94636.3
94636.3
94636.3
94636.3
94636.3
94636.3
94636.3
94636.3
94691.4
94691.4
94691.3
94691.2
94691.1
94691
94691
94690.9
94690.8
94690.8
94690.8
94690.8
94690.9
94690.9
94690.9
94682.6
94682.5
94682.3
94682.1
94681.9
94681.7
94681.6
94681.4
94681.4
94681.4
94681.4
94681.5
94681.6
94681.6
94681.7
94680.2
94679.9
94679.6
94679.2
94678.7
94678.3
94677.9
94677.7
94677.6
94677.7
94677.9
94678.1
94678.4
94678.5
94678.7
94683.7
94683
94682.2
94681.2
94680.1
94679.1
94678.4
94677.9
94677.9
94678.1
94678.7
94679.4
94680.2
94680.7
94681.3
94689.9
94688.1
94686.3
94683.7
94681.1
94678.9
94677.2
94676.4
94676.4
94677.3
94678.8
94680.8
94682.9
94684.3
94685.9
94692.4
94687
94682.8
94676.9
94671.4
94666.7
94663.4
94661.8
94662
94663.9
94667.4
94671.8
94676.8
94680.3
94685.3
94758.2
94739.7
94723.6
94704.5
94687.7
94674.2
94665.3
94661.5
94663.2
94670.1
94681.7
94696.9
94714.6
94729.8
94748
94685.7
94651.4
94643.3
94617.7
94598.4
94581.3
94569.8
94564.5
94565.8
94573.3
94586.5
94602.1
94624.4
94629.2
94662
95460
95090.7
94962.6
94807.4
94706.7
94633.2
94589.8
94573.9
94585
94623.7
94692.7
94789.5
94942
95067.9
95445.4
94149.1
94158.9
94223.2
94186.4
94167.1
94140.8
94123.5
94114.6
94115.2
94123.5
94139.8
94146.2
94169.3
94083.4
94051.2
96343.5
95443.5
94849.8
94476.7
94231.7
94076.8
93991.1
93961.1
93983.9
94062.2
94209.9
94444.7
94820.6
95368.1
96319
91434.3
92311.4
92296.9
92527.3
92640.8
92730.8
92782.7
92800.7
92786.8
92739.8
92657.4
92556
92333.4
92400.1
91414.3
90011.2
90962.6
91152
91518.8
91719.1
91876.9
91964.3
91992.6
91961.3
91871.2
91710
91511.9
91124.5
90971
89862.7
89794
90657.5
90916.9
91288.1
91503.7
91668.2
91756.6
91781.3
91739.9
91633.7
91446.3
91209.3
90788.5
90504.6
89511.2
91914.7
92063
92184.1
92294.7
92369.1
92428
92460.2
92469.4
92452.7
92413.1
92340.7
92264.2
92101
92046.3
91714.1
93044.3
92977.8
93123.4
93127.1
93151.7
93164.4
93175
93181.9
93183.9
93183.1
93175.4
93176.1
93137.6
93177.6
92927.5
96693.2
95564.7
95120
94686.9
94421.6
94247.7
94156.8
94135.4
94179.8
94296.1
94494.3
94803.1
95266.4
95821.1
97111.9
93882.1
94062.3
94124.2
94129.8
94127.6
94113.3
94105.3
94105.2
94114.6
94131.9
94153.2
94164.8
94163.7
94107.6
93909.2
94215.8
94225.7
94194.8
94181.2
94166
94154.6
94148.7
94147.7
94152.2
94161.3
94174.6
94191.3
94203.7
94236.8
94216.8
94288.1
94282.5
94267.4
94255.5
94242.3
94232.9
94227.5
94226.8
94231.1
94240.1
94252.9
94269.9
94284.9
94304.9
94312.8
94227.5
94230.2
94229.4
94228.9
94227.4
94226.3
94225.7
94226.1
94227.5
94229.9
94232.5
94235.5
94236.9
94238.7
94236
94234.7
94234.9
94233.5
94232.5
94231.3
94230.5
94230.1
94230.3
94231
94232.2
94233.7
94235.4
94236.7
94238.5
94238.2
94237.5
94237.6
94237
94236.6
94236
94235.7
94235.5
94235.7
94236.1
94236.8
94237.7
94238.7
94239.4
94240.3
94240.4
94236.6
94236.7
94236.6
94236.5
94236.4
94236.4
94236.4
94236.5
94236.7
94237
94237.3
94237.6
94237.8
94238.1
94238
94237.3
94237.4
94237.4
94237.4
94237.3
94237.3
94237.4
94237.4
94237.5
94237.6
94237.8
94237.9
94238
94238.1
94238.1
94238
94238
94238.1
94238.2
94238.2
94238.2
94238.2
94238.3
94238.3
94238.4
94238.4
94238.5
94238.5
94238.5
94238.5
94237.4
94237.8
94238.3
94238.9
94239.3
94239.4
94239.4
94239.2
94239.1
94239
94238.9
94238.9
94238.8
94238.7
94238.6
94237.9
94238.4
94239.1
94239.7
94240.1
94240
94239.8
94239.5
94239.4
94239.5
94239.6
94239.5
94239.4
94239.2
94239
SCALARS density float 1
LOOKUP_TABLE default
1.20733
1.20733
1.20733
1.20733
1.20733
1.20733
1.20733
1.20733
1.20733
1.20733
1.20733
1.20733
1.20733
1.20733
1.20733
1.20618
1.20618
1.20618
1.20618
1.20618
1.20618
1.20618
1.20618
1.20618
1.20618
1.20618
1.20618
1.20618
1.20618
1.20618
1.20659
1.20659
1.20659
1.20659
1.20659
1.20659
1.20659
1.20659
1.20659
1.20659
1.20659
1.20659
1.20659
1.20659
1.20659
1.20649
1.20649
1.20649
1.20649
1.20649
1.20649
1.20649
1.20649
1.20649
1.20649
1.20649
1.20649
1.20649
1.20649
1.20649
1.20647
1.20646
1.20646
1.20646
1.20646
1.20645
1.20645
1.20645
1.20645
1.20645
1.20645
1.20645
1.20646
1.20646
1.20646
1.20651
1.2065
1.20649
1.20648
1.20647
1.20646
1.20645
1.20645
1.20645
1.20645
1.20646
1.20647
1.20648
1.20648
1.20649
1.20658
1.20656
1.20654
1.20651
1.20648
1.20646
1.20645
1.20644
1.20644
1.20645
1.20646
1.20649
1.20651
1.20653
1.20655
1.20655
1.20651
1.20649
1.20644
1.20639
1.20635
1.20632
1.2063
1.20631
1.20633
1.20636
1.2064
1.20644
1.20646
1.2065
1.20703
1.2069
1.20679
1.20666
1.20652
1.20641
1.20633
1.2063
1.20631
1.20637
1.20647
1.20659
1.20673
1.20684
1.20698
1.20656
1.20622
1.20611
1.20587
1.20571
1.20556
1.20546
1.20541
1.20542
1.20549
1.2056
1.20574
1.20595
1.20602
1.20634
1.21437
1.21078
1.20935
1.20777
1.20677
1.20608
1.20568
1.20553
1.20563
1.20599
1.20665
1.2076
1.20913
1.21047
1.21407
1.20206
1.20214
1.20266
1.20221
1.20194
1.20165
1.20148
1.20139
1.20141
1.2015
1.2017
1.20183
1.2021
1.20137
1.20111
1.21909
1.21192
1.20734
1.20436
1.20226
1.20088
1.2001
1.19984
1.20005
1.20076
1.20206
1.20405
1.20713
1.21161
1.21984
1.17396
1.1829
1.18369
1.18639
1.18766
1.18854
1.189
1.18917
1.18904
1.1886
1.18777
1.18662
1.18427
1.1847
1.17581
1.16143
1.17081
1.17326
1.17717
1.17929
1.18082
1.18161
1.18186
1.18157
1.18072
1.17915
1.17716
1.17341
1.17191
1.1616
1.15946
1.16798
1.17106
1.17501
1.1773
1.17893
1.17976
1.17998
1.17958
1.17855
1.1767
1.17435
1.17035
1.1678
1.1589
1.17772
1.18011
1.18232
1.18408
1.18514
1.18583
1.18616
1.18623
1.18603
1.18558
1.18474
1.18385
1.18228
1.18205
1.17967
1.18615
1.187
1.19007
1.19136
1.1922
1.19252
1.19265
1.19268
1.19263
1.1925
1.19222
1.19196
1.19132
1.19145
1.1891
1.21864
1.20989
1.20777
1.20538
1.20381
1.20252
1.20172
1.20146
1.20178
1.2027
1.20429
1.20677
1.21049
1.21489
1.226
1.19365
1.19634
1.19853
1.20012
1.20107
1.20134
1.20132
1.20125
1.20122
1.20123
1.2012
1.20095
1.20043
1.19935
1.19715
1.19699
1.19794
1.19908
1.20041
1.20132
1.20172
1.20177
1.20168
1.20159
1.20151
1.20138
1.20115
1.20076
1.20058
1.2001
1.19782
1.19854
1.19969
1.20096
1.20191
1.2024
1.20252
1.20245
1.20234
1.20223
1.20206
1.20182
1.20148
1.20123
1.20104
1.19741
1.19814
1.19931
1.20062
1.20167
1.2023
1.20252
1.20249
1.20234
1.20214
1.20185
1.20148
1.20104
1.20065
1.20038
1.1976
1.19824
1.19934
1.20057
1.20162
1.20229
1.20256
1.20256
1.2024
1.20216
1.20184
1.20145
1.20103
1.20066
1.20044
1.19772
1.19833
1.19936
1.20055
1.20159
1.20229
1.2026
1.20263
1.20247
1.20221
1.20187
1.20146
1.20105
1.20069
1.20049
1.19781
1.19837
1.19935
1.2005
1.20153
1.20225
1.2026
1.20265
1.20249
1.20221
1.20185
1.20144
1.20103
1.20069
1.20049
1.19789
1.19843
1.19936
1.20047
1.20148
1.20221
1.20259
1.20266
1.20251
1.20222
1.20185
1.20143
1.20103
1.2007
1.20051
1.19797
1.19848
1.19937
1.20044
1.20144
1.20218
1.20258
1.20268
1.20253
1.20224
1.20185
1.20143
1.20103
1.20071
1.20053
1.19803
1.19852
1.19938
1.20042
1.2014
1.20215
1.20257
1.20268
1.20255
1.20225
1.20186
1.20143
1.20104
1.20072
1.20055
1.19811
1.19857
1.19939
1.2004
1.20136
1.20211
1.20255
1.20268
1.20255
1.20226
1.20186
1.20144
1.20105
1.20074
1.20057
SCALARS u-velocity float 1
LOOKUP_TABLE default
92.0156
92.0158
92.0161
92.0165
92.017
92.0175
92.018
92.0185
92.0189
92.0192
92.0195
92.0197
92.0198
92.0198
92.0198
92.1704
92.1706
92.1709
92.1714
92.172
92.1726
92.1732
92.1738
92.1743
92.1747
92.1749
92.1751
92.1752
92.1752
92.1752
92.0294
92.0296
92.0302
92.0309
92.0319
92.033
92.0339
92.0347
92.0353
92.0357
92.0359
92.0359
92.0358
92.0358
92.0358
92.0483
92.0493
92.0507
92.0526
92.0547
92.0566
92.0582
92.0594
92.0601
92.0603
92.0601
92.0595
92.0589
92.0585
92.0581
92.0491
92.0517
92.0554
92.0595
92.0635
92.0671
92.0701
92.0721
92.0729
92.0726
92.0715
92.0699
92.068
92.066
92.0644
92.0318
92.036
92.0418
92.0488
92.0564
92.0638
92.0699
92.0737
92.0747
92.0734
92.0704
92.0665
92.0619
92.057
92.053
92.013
92.0178
92.028
92.0448
92.064
92.0814
92.0944
92.1017
92.1031
92.0985
92.0886
92.0748
92.0604
92.0498
92.0439
91.9021
91.9214
91.9607
92.0148
92.0685
92.1116
92.1402
92.1542
92.1532
92.1363
92.1029
92.0572
92.0109
91.9799
91.967
91.7198
91.8399
91.9612
92.083
92.1925
92.2821
92.3428
92.3696
92.3602
92.3143
92.2372
92.1429
92.0453
91.957
91.863
90.7831
91.2546
91.5834
91.8721
92.1361
92.3674
92.5294
92.5955
92.5566
92.422
92.2204
91.9894
91.731
91.4168
90.9396
91.1848
91.5541
91.9932
92.4573
92.8799
93.2444
93.5035
93.6148
93.5654
93.3803
93.1044
92.7632
92.3176
91.7904
91.2755
83.533
86.4349
89.7545
92.1181
93.5876
94.4721
94.9752
95.1681
95.0682
94.6724
93.9014
92.5115
90.1433
86.7532
83.7078
84.556
88.6582
93.403
96.7044
98.5696
99.4633
99.8486
99.972
99.9001
99.5475
98.637
96.7174
93.5273
89.5008
87.0077
108.789
108.69
108.754
109.002
109.045
108.817
108.54
108.427
108.545
108.771
108.877
108.789
109.023
110.499
112.947
122.341
121.011
118.893
117.206
116.038
115.207
114.671
114.5
114.722
115.267
116.126
117.575
120.138
123.725
126.284
120.326
120.323
119.012
117.426
116.157
115.349
114.918
114.798
114.958
115.412
116.328
118.057
120.796
123.952
125.89
103.713
107.742
110.053
110.703
110.498
110.203
110.038
109.962
109.907
109.916
110.168
110.836
111.787
112.55
112.619
77.7154
86.769
94.7294
99.5155
101.642
102.451
102.727
102.695
102.351
101.705
100.759
99.2744
96.5752
92.0986
86.5533
72.0597
78.8782
87.2998
93.4611
96.6758
97.918
98.218
98.1012
97.7046
97.0077
95.8317
93.7042
89.9545
84.6715
79.6365
81.3864
83.8862
88.8907
93.5646
96.3972
97.4568
97.5342
97.2901
97.0072
96.6593
95.9831
94.6099
92.4484
90.2446
89.4695
81.9313
84.3685
88.5019
92.6819
95.567
96.8405
97.0247
96.7854
96.4961
96.1446
95.4568
94.1717
92.4096
90.7564
89.8672
82.3951
84.6442
88.2847
92.0847
94.9197
96.3632
96.7104
96.528
96.2046
95.7744
95.0343
93.8303
92.3113
90.9113
90.0411
83.0129
85.0372
88.3475
91.866
94.6218
96.1741
96.6734
96.568
96.2216
95.7197
94.9469
93.8205
92.4702
91.2329
90.4739
83.3609
85.2235
88.305
91.639
94.351
95.9984
96.6374
96.6129
96.2513
95.6777
94.8528
93.7448
92.474
91.3254
90.632
83.6559
85.3826
88.2708
91.4529
94.1257
95.8457
96.5999
96.6499
96.2843
95.6547
94.7808
93.6744
92.4571
91.3818
90.7426
83.9204
85.5331
88.2567
91.308
93.9429
95.7179
96.5667
96.684
96.3237
95.6532
94.7376
93.6267
92.449
91.4338
90.8393
84.1499
85.6664
88.2491
91.1859
93.783
95.5992
96.5259
96.7031
96.354
95.6545
94.7046
93.5869
92.4389
91.4717
90.9132
84.3545
85.7891
88.2502
91.0854
93.644
95.4888
96.4784
96.7083
96.3743
95.6561
94.6805
93.557
92.4322
91.5036
90.9741
84.5424
85.9052
88.2587
91.0012
93.5202
95.3837
96.4249
96.702
96.3863
95.6581
94.6642
93.5365
92.4302
91.5326
91.0263
84.7427
86.0322
88.2743
90.9185
93.391
95.2675
96.3576
96.6838
96.392
95.6603
94.6527
93.522
92.4325
91.5633
91.0784
SCALARS v-velocity float 1
LOOKUP_TABLE default
5.66102e-05
0.000174628
0.000280808
0.000374506
0.000444008
0.000483407
0.000491066
0.000469931
0.000425696
0.000365284
0.000295882
0.000223929
0.000154836
8.80615e-05
3.12657e-05
0.000150526
0.000466305
0.000747148
0.00098206
0.00113277
0.0011886
0.00115499
0.00104873
0.000891434
0.000708749
0.000529017
0.000374654
0.000254033
0.000146436
5.56723e-05
0.00047098
0.0013907
0.00209158
0.00255835
0.00274895
0.00268757
0.00241764
0.00199864
0.00149884
0.000993256
0.00055532
0.000236648
5.79505e-05
-2.48198e-05
-9.29031e-07
0.00108968
0.00313151
0.00451003
0.00531032
0.00552934
0.00524098
0.00451826
0.00349221
0.00234219
0.00124973
0.000346258
-0.000306003
-0.000649066
-0.000678662
-0.000246599
0.00166041
0.00496729
0.007302
0.0089104
0.00954458
0.00917289
0.00785612
0.00586878
0.00362103
0.00150928
-0.000205767
-0.0014094
-0.00195814
-0.00184495
-0.000646387
0.00269247
0.00926649
0.0147812
0.0188443
0.0201243
0.0186587
0.0149706
0.00986585
0.00421155
-0.00112915
-0.00529276
-0.0074959
-0.00718736
-0.00511557
-0.00140603
0.00926097
0.0303801
0.0458608
0.0544641
0.0539328
0.0459627
0.0328784
0.0169709
0.000259197
-0.0151023
-0.0264718
-0.0311727
-0.0275141
-0.0182349
-0.00492991
0.0352446
0.0959317
0.127051
0.138792
0.130915
0.106975
0.0712687
0.0290358
-0.014021
-0.0518593
-0.0786161
-0.0901016
-0.0846086
-0.0654531
-0.0238865
0.0861056
0.207792
0.259622
0.279571
0.265308
0.217228
0.140154
0.0460673
-0.0493537
-0.130496
-0.185917
-0.212077
-0.209551
-0.178768
-0.0773569
0.119484
0.387367
0.491086
0.544633
0.509376
0.410816
0.258015
0.073898
-0.113879
-0.279306
-0.403607
-0.480305
-0.476738
-0.41032
-0.138333
0.267299
1.60067
1.87306
1.87111
1.56757
1.14538
0.652045
0.125062
-0.408103
-0.922201
-1.3837
-1.74298
-1.80304
-1.57614
-0.254923
1.19098
3.2229
3.86823
3.78956
3.11502
2.22535
1.24469
0.241019
-0.762661
-1.74133
-2.61638
-3.24834
-3.24524
-2.57942
-0.803993
21.9696
17.5515
14.0441
10.8825
7.95981
5.25518
2.7402
0.34215
-2.05034
-4.5408
-7.17897
-9.99044
-13.0221
-16.7917
-21.9212
22.8736
16.4818
13.0901
9.77942
7.14433
4.73042
2.47599
0.299959
-1.87807
-4.13341
-6.53911
-9.18866
-12.6747
-16.4308
-23.8134
10.1467
7.11959
5.86214
4.2519
3.17214
2.17684
1.24878
0.325102
-0.600333
-1.53396
-2.55328
-3.70232
-5.55732
-7.01425
-10.6411
-7.67166
-6.12398
-4.00198
-2.92806
-1.89378
-1.02992
-0.228816
0.520983
1.28782
2.14242
3.08494
4.23051
5.34765
7.51067
8.57727
-19.6291
-14.4331
-10.4069
-7.44822
-5.08638
-3.06543
-1.18758
0.634293
2.4888
4.46815
6.64149
9.23944
12.3384
16.8068
21.7433
-20.2412
-15.0137
-11.3366
-8.16128
-5.67122
-3.50308
-1.47176
0.537176
2.57797
4.69901
6.96872
9.5941
12.7327
17.0398
21.9888
-2.07962
-2.23451
-2.60949
-2.1435
-1.66002
-1.09608
-0.444079
0.296696
1.05229
1.73107
2.26013
2.6283
2.79484
2.25198
2.0883
-0.393969
-1.4445
-1.55658
-1.18411
-0.791199
-0.452854
-0.150259
0.173077
0.505419
0.812071
1.08501
1.32004
1.4787
1.26461
0.29196
-0.211698
-0.744424
-0.855177
-0.688143
-0.406948
-0.176331
-0.0146386
0.123109
0.264158
0.415697
0.580948
0.737697
0.778935
0.644484
0.17076
-0.111038
-0.337155
-0.413892
-0.327726
-0.150402
-0.0070113
0.0627866
0.0840374
0.100554
0.143456
0.21696
0.292612
0.295535
0.214875
0.0607318
-0.0936026
-0.245637
-0.290083
-0.222157
-0.0899333
0.0216701
0.0683932
0.0617139
0.0447505
0.0551262
0.0991428
0.150171
0.163237
0.127011
0.0454654
-0.0759985
-0.193652
-0.225028
-0.169866
-0.0665136
0.0232701
0.0606013
0.0495883
0.0252435
0.0220083
0.0483723
0.085111
0.10187
0.0851165
0.0328703
-0.0635781
-0.161966
-0.189111
-0.143842
-0.0590985
0.0162675
0.0495219
0.0410809
0.017815
0.0089375
0.0245371
0.0522318
0.0691435
0.0604348
0.0238568
-0.0554347
-0.1419
-0.16811
-0.131669
-0.0602784
0.00571394
0.0381597
0.0351648
0.0169165
0.00751296
0.0174086
0.0387381
0.0534636
0.0475447
0.0189586
-0.0488487
-0.125825
-0.151602
-0.122946
-0.0625133
-0.00394906
0.0282352
0.0305311
0.0178642
0.00979751
0.016233
0.032275
0.0438021
0.0387901
0.0154946
-0.0439438
-0.113995
-0.139795
-0.117561
-0.0657501
-0.0127347
0.0197739
0.026987
0.0196893
0.013635
0.0178199
0.0294299
0.0376395
0.0326423
0.0129663
-0.0430549
-0.112426
-0.140048
-0.121493
-0.0730138
-0.020633
0.0147137
0.0268317
0.0238194
0.0192629
0.0218393
0.0302149
0.0357271
0.0300333
0.0118066
-0.0444107
-0.116363
-0.1461
-0.128661
-0.0798329
-0.0255412
0.0127828
0.0279819
0.0271425
0.023289
0.0252302
0.0322832
0.0365428
0.030127
0.0117603
SCALARS Mach float 1
LOOKUP_TABLE default
25.5483
25.5484
25.5486
25.5488
25.5491
25.5494
25.5497
25.5499
25.5502
25.5503
25.5505
25.5506
25.5507
25.5507
25.5507
25.6328
25.6329
25.6331
25.6333
25.6336
25.634
25.6344
25.6347
25.635
25.6352
25.6353
25.6354
25.6355
25.6355
25.6355
25.5513
25.5515
25.5518
25.5522
25.5528
25.5534
25.5539
25.5544
25.5547
25.5549
25.555
25.555
25.555
25.555
25.555
25.562
25.5625
25.5634
25.5644
25.5656
25.5667
25.5676
25.5683
25.5687
25.5688
25.5686
25.5683
25.568
25.5677
25.5676
25.5625
25.564
25.566
25.5683
25.5706
25.5726
25.5743
25.5754
25.5759
25.5757
25.5751
25.5742
25.5731
25.572
25.5711
25.5528
25.5552
25.5584
25.5623
25.5666
25.5708
25.5742
25.5763
25.5769
25.5761
25.5745
25.5723
25.5697
25.567
25.5647
25.5423
25.5451
25.5507
25.5601
25.5708
25.5805
25.5878
25.5919
25.5927
25.5901
25.5846
25.5769
25.5688
25.563
25.5596
25.4802
25.4912
25.5133
25.5437
25.5737
25.5978
25.6139
25.6217
25.6211
25.6117
25.593
25.5674
25.5414
25.524
25.5166
25.3755
25.4431
25.5115
25.5803
25.642
25.6924
25.7265
25.7415
25.7362
25.7104
25.667
25.6138
25.5586
25.5087
25.4556
24.8645
25.1248
25.3065
25.4673
25.6146
25.7439
25.8344
25.8714
25.8496
25.7744
25.6617
25.5329
25.3889
25.2151
24.9511
25.064
25.2865
25.5345
25.7969
26.033
26.2369
26.3819
26.4442
26.4163
26.3124
26.1579
25.967
25.7145
25.4166
25.1126
21.0764
22.5925
24.3695
25.6659
26.4756
26.964
27.242
27.3486
27.2929
27.0734
26.6458
25.8751
24.5687
22.7495
21.165
22.9457
24.5999
26.9007
28.5765
29.522
29.9557
30.131
30.1846
30.1525
29.986
29.5274
28.5291
26.8891
24.9801
24.2145
37.4255
36.5627
36.3158
36.2461
36.1371
35.8959
35.6612
35.5683
35.6569
35.8487
35.9993
36.0699
36.4627
37.7677
40.3862
45.7511
44.5548
42.9653
41.6936
40.8356
40.2286
39.8403
39.7153
39.8722
40.2633
40.8864
41.9448
43.8663
46.5847
48.8027
44.1493
44.0326
43.0105
41.8355
40.9135
40.3301
40.021
39.9366
40.0549
40.3862
41.0542
42.3209
44.364
46.8152
48.4189
33.7065
35.7558
36.9864
37.2666
37.0412
36.7934
36.658
36.603
36.5842
36.6329
36.8756
37.4489
38.3005
39.221
39.8762
19.4617
23.416
27.5004
30.1378
31.3338
31.775
31.9153
31.8891
31.6942
31.3404
30.8392
30.0694
28.6815
26.512
24.1103
15.5927
18.725
22.9724
26.3538
28.2126
28.9484
29.1274
29.0581
28.8237
28.4131
27.7242
26.4969
24.4012
21.5901
19.0576
19.9617
21.2161
23.8373
26.4227
28.0556
28.6799
28.7259
28.5814
28.4144
28.2097
27.8145
27.0216
25.7972
24.5768
24.1552
20.2219
21.4517
23.6207
25.9199
27.5703
28.316
28.4252
28.2844
28.114
27.9075
27.5067
26.7668
25.7689
24.8484
24.3604
20.4507
21.5898
23.5001
25.5816
27.1933
28.0338
28.2384
28.1313
27.9412
27.6893
27.2594
26.5681
25.7092
24.9298
24.4518
20.7616
21.7929
23.5344
25.46
27.0224
27.9237
28.217
28.1551
27.9516
27.658
27.2097
26.5634
25.7993
25.1092
24.6907
20.9369
21.8889
23.5113
25.3333
26.8668
27.821
28.1958
28.1815
27.969
27.6337
27.1555
26.5202
25.8013
25.1603
24.7774
21.0861
21.9711
23.4929
25.2297
26.7376
27.7318
28.1737
28.2031
27.9882
27.6203
27.114
26.4801
25.7917
25.1914
24.8381
21.2204
22.0491
23.4853
25.1493
26.6331
27.6573
28.1542
28.2231
28.0113
27.6194
27.0891
26.453
25.7872
25.2203
24.8914
21.3374
22.1183
23.4812
25.0816
26.5419
27.5882
28.1301
28.2343
28.0291
27.6202
27.0702
26.4304
25.7815
25.2414
24.9322
21.4419
22.1821
23.4818
25.0259
26.4627
27.524
28.1022
28.2373
28.0409
27.6212
27.0563
26.4134
25.7778
25.2591
24.9657
21.5381
22.2426
23.4864
24.9794
26.3922
27.463
28.0708
28.2336
28.048
27.6224
27.047
26.4018
25.7767
25.2752
24.9946
21.6409
22.3088
23.4948
24.9337
26.3188
27.3955
28.0312
28.2229
28.0514
27.6237
27.0404
26.3936
25.778
25.2922
25.0234
