# vtk DataFile Version 3.0
Structured Grid Example
ASCII
DATASET STRUCTURED_GRID
DIMENSIONS 30 60 1
POINTS 1800 FLOAT
0.0416666 0.0166667 0
0.0416664 0.05 0
0.0416662 0.0833333 0
0.041666 0.116667 0
0.0416658 0.15 0
0.0416656 0.183333 0
0.0416654 0.216667 0
0.0416653 0.25 0
0.0416651 0.283333 0
0.041665 0.316667 0
0.0416649 0.35 0
0.0416648 0.383333 0
0.0416648 0.416667 0
0.0416647 0.45 0
0.0416647 0.483333 0
0.0416647 0.516667 0
0.0416647 0.55 0
0.0416648 0.583333 0
0.0416648 0.616667 0
0.0416649 0.65 0
0.041665 0.683333 0
0.0416651 0.716667 0
0.0416653 0.75 0
0.0416654 0.783333 0
0.0416656 0.816667 0
0.0416658 0.85 0
0.041666 0.883333 0
0.0416662 0.916667 0
0.0416664 0.95 0
0.0416666 0.983333 0
0.125 0.0166667 0
0.124999 0.05 0
0.124998 0.0833334 0
0.124998 0.116667 0
0.124997 0.15 0
0.124997 0.183333 0
0.124996 0.216667 0
0.124996 0.25 0
0.124995 0.283333 0
0.124995 0.316667 0
0.124995 0.35 0
0.124994 0.383333 0
0.124994 0.416667 0
0.124994 0.45 0
0.124994 0.483333 0
0.124994 0.516667 0
0.124994 0.55 0
0.124994 0.583333 0
0.124994 0.616667 0
0.124995 0.65 0
0.124995 0.683333 0
0.124995 0.716667 0
0.124996 0.75 0
0.124996 0.783333 0
0.124997 0.816667 0
0.124997 0.85 0
0.124998 0.883333 0
0.124998 0.916667 0
0.124999 0.95 0
0.125 0.983333 0
0.208333 0.0166667 0
0.208332 0.0500001 0
0.208331 0.0833334 0
0.20833 0.116667 0
0.208329 0.15 0
0.208328 0.183334 0
0.208327 0.216667 0
0.208326 0.25 0
0.208325 0.283334 0
0.208325 0.316667 0
0.208324 0.35 0
0.208324 0.383333 0
0.208323 0.416667 0
0.208323 0.45 0
0.208323 0.483333 0
0.208323 0.516667 0
0.208323 0.55 0
0.208323 0.583333 0
0.208324 0.616667 0
0.208324 0.65 0
0.208325 0.683333 0
0.208325 0.716666 0
0.208326 0.75 0
0.208327 0.783333 0
0.208328 0.816666 0
0.208329 0.85 0
0.20833 0.883333 0
0.208331 0.916667 0
0.208332 0.95 0
0.208333 0.983333 0
0.291666 0.0166667 0
0.291664 0.0500001 0
0.291663 0.0833335 0
0.291661 0.116667 0
0.29166 0.15 0
0.291658 0.183334 0
0.291657 0.216667 0
0.291656 0.25 0
0.291655 0.283334 0
0.291654 0.316667 0
0.291653 0.35 0
0.291652 0.383334 0
0.291652 0.416667 0
0.291651 0.45 0
0.291651 0.483333 0
0.291651 0.516667 0
0.291651 0.55 0
0.291652 0.583333 0
0.291652 0.616666 0
0.291653 0.65 0
0.291654 0.683333 0
0.291655 0.716666 0
0.291656 0.75 0
0.291657 0.783333 0
0.291658 0.816666 0
0.29166 0.85 0
0.291661 0.883333 0
0.291663 0.916666 0
0.291664 0.95 0
0.291666 0.983333 0
0.374999 0.0166667 0
0.374997 0.0500002 0
0.374994 0.0833337 0
0.374992 0.116667 0
0.37499 0.150001 0
0.374988 0.183334 0
0.374986 0.216667 0
0.374985 0.250001 0
0.374983 0.283334 0
0.374982 0.316667 0
0.37498 0.350001 0
0.37498 0.383334 0
0.374979 0.416667 0
0.374978 0.45 0
0.374978 0.483333 0
0.374978 0.516667 0
0.374978 0.55 0
0.374979 0.583333 0
0.37498 0.616666 0
0.37498 0.649999 0
0.374982 0.683333 0
0.374983 0.716666 0
0.374985 0.749999 0
0.374986 0.783333 0
0.374988 0.816666 0
0.37499 0.849999 0
0.374992 0.883333 0
0.374994 0.916666 0
0.374997 0.95 0
0.374999 0.983333 0
0.458332 0.0166668 0
0.458329 0.0500003 0
0.458326 0.0833339 0
0.458323 0.116667 0
0.45832 0.150001 0
0.458317 0.183334 0
0.458315 0.216668 0
0.458312 0.250001 0
0.45831 0.283334 0
0.458308 0.316668 0
0.458307 0.350001 0
0.458306 0.383334 0
0.458305 0.416667 0
0.458304 0.45 0
0.458304 0.483333 0
0.458304 0.516667 0
0.458304 0.55 0
0.458305 0.583333 0
0.458306 0.616666 0
0.458307 0.649999 0
0.458308 0.683332 0
0.45831 0.716666 0
0.458312 0.749999 0
0.458315 0.783332 0
0.458317 0.816666 0
0.45832 0.849999 0
0.458323 0.883333 0
0.458326 0.916666 0
0.458329 0.95 0
0.458332 0.983333 0
0.541665 0.0166669 0
0.54166 0.0500006 0
0.541656 0.0833342 0
0.541653 0.116668 0
0.541649 0.150001 0
0.541645 0.183335 0
0.541642 0.216668 0
0.541639 0.250002 0
0.541636 0.283335 0
0.541634 0.316668 0
0.541632 0.350001 0
0.54163 0.383335 0
0.541629 0.416668 0
0.541628 0.450001 0
0.541627 0.483334 0
0.541627 0.516666 0
0.541628 0.549999 0
0.541629 0.583332 0
0.54163 0.616665 0
0.541632 0.649999 0
0.541634 0.683332 0
0.541636 0.716665 0
0.541639 0.749998 0
0.541642 0.783332 0
0.541645 0.816665 0
0.541649 0.849999 0
0.541653 0.883332 0
0.541656 0.916666 0
0.54166 0.949999 0
0.541665 0.983333 0
0.624997 0.016667 0
0.624992 0.0500009 0
0.624987 0.0833349 0
0.624981 0.116669 0
0.624976 0.150002 0
0.624972 0.183336 0
0.624967 0.21667 0
0.624963 0.250003 0
0.62496 0.283336 0
0.624956 0.316669 0
0.624954 0.350002 0
0.624952 0.383335 0
0.62495 0.416668 0
0.624949 0.450001 0
0.624948 0.483334 0
0.624948 0.516666 0
0.624949 0.549999 0
0.62495 0.583332 0
0.624952 0.616665 0
0.624954 0.649998 0
0.624956 0.683331 0
0.62496 0.716664 0
0.624963 0.749997 0
0.624967 0.78333 0
0.624972 0.816664 0
0.624976 0.849998 0
0.624981 0.883331 0
0.624987 0.916665 0
0.624992 0.949999 0
0.624997 0.983333 0
0.70833 0.0166672 0
0.708323 0.0500016 0
0.708316 0.0833359 0
0.708309 0.11667 0
0.708302 0.150004 0
0.708296 0.183338 0
0.708291 0.216672 0
0.708285 0.250005 0
0.708281 0.283338 0
0.708276 0.316671 0
0.708273 0.350004 0
0.70827 0.383337 0
0.708268 0.416669 0
0.708266 0.450002 0
0.708265 0.483334 0
0.708265 0.516666 0
0.708266 0.549998 0
0.708268 0.583331 0
0.70827 0.616663 0
0.708273 0.649996 0
0.708276 0.683329 0
0.708281 0.716662 0
0.708285 0.749995 0
0.708291 0.783328 0
0.708296 0.816662 0
0.708302 0.849996 0
0.708309 0.88333 0
0.708316 0.916664 0
0.708323 0.949998 0
0.70833 0.983333 0
0.791662 0.0166676 0
0.791653 0.0500026 0
0.791644 0.0833376 0
0.791635 0.116672 0
0.791626 0.150007 0
0.791618 0.183341 0
0.791611 0.216675 0
0.791604 0.250009 0
0.791598 0.283342 0
0.791592 0.316674 0
0.791588 0.350007 0
0.791584 0.383339 0
0.791581 0.416671 0
0.791579 0.450003 0
0.791578 0.483334 0
0.791578 0.516666 0
0.791579 0.549997 0
0.791581 0.583329 0
0.791584 0.616661 0
0.791588 0.649993 0
0.791592 0.683326 0
0.791598 0.716658 0
0.791604 0.749991 0
0.791611 0.783325 0
0.791618 0.816659 0
0.791626 0.849993 0
0.791635 0.883328 0
0.791644 0.916662 0
0.791653 0.949997 0
0.791662 0.983332 0
0.874994 0.0166682 0
0.874982 0.0500044 0
0.87497 0.0833405 0
0.874959 0.116676 0
0.874948 0.150012 0
0.874937 0.183346 0
0.874927 0.216681 0
0.874918 0.250014 0
0.87491 0.283347 0
0.874903 0.31668 0
0.874897 0.350012 0
0.874892 0.383343 0
0.874889 0.416674 0
0.874886 0.450004 0
0.874885 0.483335 0
0.874885 0.516665 0
0.874886 0.549996 0
0.874889 0.583326 0
0.874892 0.616657 0
0.874897 0.649988 0
0.874903 0.68332 0
0.87491 0.716653 0
0.874918 0.749986 0
0.874927 0.783319 0
0.874937 0.816654 0
0.874948 0.849988 0
0.874959 0.883324 0
0.87497 0.916659 0
0.874982 0.949996 0
0.874994 0.983332 0
0.958325 0.0166692 0
0.95831 0.0500074 0
0.958294 0.0833454 0
0.958279 0.116683 0
0.958265 0.150019 0
0.958251 0.183355 0
0.958239 0.21669 0
0.958227 0.250024 0
0.958217 0.283357 0
0.958207 0.316689 0
0.9582 0.350019 0
0.958193 0.383349 0
0.958189 0.416679 0
0.958185 0.450007 0
0.958184 0.483336 0
0.958184 0.516664 0
0.958185 0.549993 0
0.958189 0.583321 0
0.958193 0.616651 0
0.9582 0.649981 0
0.958207 0.683311 0
0.958217 0.716643 0
0.958227 0.749976 0
0.958239 0.78331 0
0.958251 0.816645 0
0.958265 0.849981 0
0.958279 0.883317 0
0.958294 0.916655 0
0.95831 0.949993 0
0.958325 0.983331 0
1.04166 0.0166709 0
1.04164 0.0500125 0
1.04162 0.0833535 0
1.0416 0.116694 0
1.04158 0.150033 0
1.04156 0.18337 0
1.04154 0.216706 0
1.04153 0.25004 0
1.04152 0.283373 0
1.0415 0.316703 0
1.04149 0.350033 0
1.04148 0.38336 0
1.04148 0.416687 0
1.04147 0.450012 0
1.04147 0.483338 0
1.04147 0.516662 0
1.04147 0.549988 0
1.04148 0.583313 0
1.04148 0.61664 0
1.04149 0.649967 0
1.0415 0.683297 0
1.04152 0.716627 0
1.04153 0.74996 0
1.04154 0.783294 0
1.04156 0.81663 0
1.04158 0.849967 0
1.0416 0.883306 0
1.04162 0.916646 0
1.04164 0.949988 0
1.04166 0.983329 0
1.12499 0.0166738 0
1.12496 0.050021 0
1.12493 0.0833672 0
1.12491 0.116712 0
1.12488 0.150055 0
1.12486 0.183395 0
1.12484 0.216733 0
1.12482 0.250068 0
1.1248 0.283399 0
1.12479 0.316728 0
1.12477 0.350054 0
1.12476 0.383378 0
1.12476 0.4167 0
1.12475 0.450021 0
1.12475 0.48334 0
1.12475 0.51666 0
1.12475 0.549979 0
1.12476 0.5833 0
1.12476 0.616622 0
1.12477 0.649946 0
1.12479 0.683272 0
1.1248 0.716601 0
1.12482 0.749932 0
1.12484 0.783267 0
1.12486 0.816605 0
1.12488 0.849945 0
1.12491 0.883288 0
1.12493 0.916633 0
1.12496 0.949979 0
1.12499 0.983326 0
1.20832 0.0166786 0
1.20828 0.0500352 0
1.20825 0.0833903 0
1.20821 0.116743 0
1.20818 0.150092 0
1.20815 0.183437 0
1.20813 0.216778 0
1.2081 0.250113 0
1.20808 0.283444 0
1.20806 0.31677 0
1.20804 0.350091 0
1.20803 0.383409 0
1.20802 0.416723 0
1.20801 0.450035 0
1.20801 0.483345 0
1.20801 0.516655 0
1.20801 0.549965 0
1.20802 0.583277 0
1.20803 0.616591 0
1.20804 0.649909 0
1.20806 0.68323 0
1.20808 0.716556 0
1.2081 0.749887 0
1.20813 0.783222 0
1.20815 0.816563 0
1.20818 0.849908 0
1.20821 0.883257 0
1.20825 0.91661 0
1.20828 0.949965 0
1.20832 0.983321 0
1.29164 0.0166867 0
1.2916 0.0500593 0
1.29155 0.0834291 0
1.29151 0.116795 0
1.29147 0.150154 0
1.29143 0.183507 0
1.2914 0.216853 0
1.29136 0.25019 0
1.29133 0.283518 0
1.29131 0.316839 0
1.29129 0.350152 0
1.29127 0.383459 0
1.29126 0.416761 0
1.29125 0.450058 0
1.29124 0.483353 0
1.29124 0.516647 0
1.29125 0.549942 0
1.29126 0.583239 0
1.29127 0.616541 0
1.29129 0.649848 0
1.29131 0.683161 0
1.29133 0.716482 0
1.29136 0.74981 0
1.2914 0.783147 0
1.29143 0.816493 0
1.29147 0.849846 0
1.29151 0.883205 0
1.29155 0.916571 0
1.2916 0.949941 0
1.29164 0.983313 0
1.37497 0.0167005 0
1.37491 0.0501 0
1.37485 0.0834948 0
1.3748 0.116882 0
1.37474 0.15026 0
1.37469 0.183626 0
1.37465 0.216979 0
1.3746 0.250318 0
1.37457 0.283643 0
1.37453 0.316955 0
1.37451 0.350254 0
1.37449 0.383543 0
1.37447 0.416823 0
1.37446 0.450097 0
1.37445 0.483366 0
1.37445 0.516634 0
1.37446 0.549903 0
1.37447 0.583177 0
1.37449 0.616457 0
1.37451 0.649746 0
1.37453 0.683045 0
1.37457 0.716357 0
1.3746 0.749682 0
1.37465 0.783021 0
1.37469 0.816374 0
1.37474 0.84974 0
1.3748 0.883118 0
1.37485 0.916505 0
1.37491 0.9499 0
1.37497 0.983299 0
1.45829 0.0167241 0
[...]
POINT_DATA 1800
SCALARS pressure float 1
LOOKUP_TABLE default
94287.8
94287.9
94288
94288.1
94288.2
94288.4
94288.5
94288.6
94288.8
94288.9
94288.9
94289
94289
94288.9
94288.9
94288.8
94288.7
94288.6
94288.6
94288.5
94288.4
94288.3
94288.3
94288.3
94288.3
94288.2
94288.3
94288.3
94288.3
94288.3
94311
94311.1
94311.3
94311.6
94311.9
94312.3
94312.7
94313.1
94313.5
94313.8
94314
94314.2
94314.3
94314.4
94314.3
94314.2
94314
94313.8
94313.6
94313.3
94313.1
94312.8
94312.6
94312.4
94312.2
94312
94311.9
94311.8
94311.8
94311.7
94298.4
94298.5
94298.7
94299
94299.3
94299.7
94300.1
94300.5
94300.9
94301.3
94301.6
94301.9
94302.1
94302.2
94302.2
94302.1
94302
94301.8
94301.5
94301.2
94300.9
94300.6
94300.2
94299.9
94299.6
94299.3
94299.1
94298.9
94298.8
94298.7
94299.5
94299.6
94299.8
94300.1
94300.4
94300.9
94301.4
94301.9
94302.3
94302.8
94303.2
94303.6
94303.9
94304.1
94304.1
94304.1
94304
94303.8
94303.5
94303.2
94302.7
94302.3
94301.8
94301.3
94300.9
94300.4
94300.1
94299.7
94299.6
94299.4
94307.4
94307.4
94307.7
94307.9
94308.2
94308.6
94309
94309.4
94309.9
94310.4
94310.8
94311.2
94311.6
94311.8
94312
94312.1
94312.1
94312
94311.7
94311.4
94310.9
94310.4
94309.8
94309.2
94308.6
94308
94307.6
94307.1
94306.9
94306.7
94291.9
94291.8
94292
94292.1
94292.3
94292.5
94292.8
94293.2
94293.5
94294
94294.4
94294.8
94295.2
94295.6
94295.9
94296.2
94296.2
94296.2
94296
94295.7
94295.3
94294.7
94294.1
94293.4
94292.7
94292
94291.4
94290.9
94290.5
94290.3
94316.9
94316.8
94316.9
94316.8
94316.9
94316.9
94317.1
94317.2
94317.5
94317.8
94318.2
94318.7
94319.1
94319.6
94320
94320.3
94320.5
94320.6
94320.6
94320.3
94319.9
94319.4
94318.7
94318
94317.2
94316.4
94315.8
94315.2
94314.8
94314.6
94285.8
94285.6
94285.6
94285.3
94285.2
94285
94285
94284.9
94285
94285.2
94285.4
94285.8
94286.3
94286.8
94287.3
94287.7
94288.1
94288.3
94288.4
94288.3
94288
94287.5
94286.9
94286.1
94285.4
94284.6
94283.9
94283.3
94282.9
94282.7
94327.6
94327.3
94327.2
94326.7
94326.4
94325.9
94325.6
94325.3
94325.2
94325.2
94325.3
94325.6
94326
94326.5
94327.1
94327.6
94328.1
94328.4
94328.7
94328.7
94328.5
94328.2
94327.7
94327
94326.4
94325.6
94325
94324.5
94324
94323.9
94278.9
94278.5
94278.3
94277.6
94277.1
94276.4
94275.8
94275.2
94274.8
94274.6
94274.5
94274.7
94275
94275.5
94276
94276.6
94277.1
94277.6
94278
94278.2
94278.2
94278.1
94277.7
94277.3
94276.8
94276.2
94275.7
94275.3
94274.9
94274.8
94340.1
94339.7
94339.3
94338.5
94337.8
94336.7
94335.9
94335
94334.4
94333.8
94333.5
94333.5
94333.6
94334
94334.5
94335.1
94335.7
94336.3
94336.8
94337.2
94337.5
94337.6
94337.6
94337.4
94337.2
94336.9
94336.5
94336.3
94336
94336.1
94269.9
94269.3
94268.9
94267.8
94266.9
94265.6
94264.5
94263.3
94262.3
94261.4
94260.9
94260.5
94260.5
94260.6
94261
94261.5
94262.2
94262.9
94263.5
94264.2
94264.7
94265.2
94265.5
94265.7
94265.8
94265.9
94265.8
94265.9
94265.7
94265.9
94356.9
94356.3
94355.7
94354.4
94353.3
94351.7
94350.2
94348.6
94347.3
94346
94345
94344.3
94343.9
94343.8
94344
94344.4
94345
94345.9
94346.7
94347.7
94348.6
94349.5
94350.3
94351.1
94351.7
94352.4
94352.7
94353.2
94353.2
94353.5
94258.9
94258.2
94257.5
94255.9
94254.5
94252.4
94250.7
94248.4
94246.7
94244.8
94243.5
94242.2
94241.4
94241
94240.9
94241.2
94241.8
94242.7
94243.7
94245.1
94246.4
94248
94249.3
94250.9
94252
94253.4
94254.2
94255.2
94255.4
94256.1
94381.4
94380.5
94379.6
94377.6
94375.8
94373
94370.6
94367.7
94365.2
94362.5
94360.4
94358.5
94357.1
94356.2
94355.8
94355.9
94356.5
94357.7
94359.1
94361.1
94363.1
94365.6
94367.8
94370.4
94372.5
94374.9
94376.3
94378.1
94378.7
94379.6
94247.2
94245.9
94244.8
94241.9
94239.5
94235.6
94232.5
94228.2
94224.9
94221
94218.1
94215.1
94213.2
94211.5
94210.8
94210.7
94211.3
94212.8
94214.6
94217.5
94220.2
94224
94227.2
94231.4
94234.4
94238.4
94240.6
94243.6
94244.5
94246
94421.3
94419.4
94417.6
94413.4
94409.7
94404
94399.1
94392.8
94387.7
94381.8
94377.3
94372.8
94369.6
94367.1
94365.8
94365.6
94366.3
94368.5
94371.3
94375.7
94380
94385.9
94391
94397.6
94402.6
94408.7
94412.5
94417.1
94418.9
94421.1
94243.1
94239.5
94237.2
94229.7
94224.8
94215.1
94208.5
94198.3
94191.3
94182.1
94176
94169
94164.7
94160.7
94158.9
94158.5
94159.5
94162.7
94166.4
94173
94178.9
94188.1
94195.2
94205.7
94212.7
94222.9
94228.3
94236.3
94238.7
94242.6
94498.6
94492.7
94488.4
94476.2
94467.1
94451.6
94440
94423.9
94412.1
94397.8
94387.7
94376.9
94370
94364
94361.1
94360.7
94362.4
94367.6
94373.7
94384.1
94393.8
94408.4
94420.2
94437
94448.9
94465.5
94474.9
94488
94492.5
94498.8
94278.3
94264.9
94259.1
94234.2
94221.6
94192.7
94176.9
94149.3
94133.4
94110.4
94097
94080.5
94071.5
94062.6
94059
94058.3
94060.7
94068.5
94076.6
94092.4
94105.5
94128.4
94144.5
94172.5
94188.9
94218.5
94231.7
94257.3
94263.4
94277.2
94682.4
94656.4
94642.8
94599
94573.5
94525.5
94495.8
94451.6
94423.7
94387.7
94365.3
94340
94325.4
94312.2
94306.7
94306.2
94310.1
94322.6
94335.8
94360.9
94382.4
94418.9
94446.3
94491.8
94521.2
94570.9
94596.1
94641.5
94654.7
94681.5
94480.8
94402.3
94385.2
94283.3
94249.4
94156.4
94117.9
94043.5
94008.4
93953.9
93926.6
93891
93873.7
93855.8
93849.5
93848.8
93853.8
93870.4
93886.7
93921.4
93948.2
94002.2
94037.3
94111.7
94150.4
94243.6
94277.7
94380
94397
94476.1
95250.1
95057.4
95002.1
94819.9
94743.3
94594.5
94522.2
94409
94350.1
94269.7
94227.2
94175.8
94150
94124.8
94115.6
94115.4
94122.7
94147.5
94171.4
94223.1
94263.7
94345.3
94401.9
94517.5
94586.8
94739.3
94811.8
94998.8
95049.4
95246.8
95461.8
94761.2
94711
94283.6
94195.9
93940.7
93861
93706.7
93646
93553.2
93512
93459.1
93435.4
93411.1
93403.1
93402.6
93409.7
93433.1
93455.9
93508
93548.5
93640.6
93700.8
93854.1
93933.2
94187
94273.3
94699.1
94745.8
95446.4
96593.6
95661.1
95289.8
94783.2
94595.5
94293
94177.5
93992.5
93917.2
93804.9
93756.7
93692.4
93665.3
93636
93626.8
93626.8
93634.8
93664.2
93689.9
93754.8
93800.7
93914.9
93986.2
94175.4
94282.7
94594.2
94764.4
95290
95623.6
96596.1
92403.4
92739.3
92422.7
92599.9
92470.1
92559
92505.7
92551.9
92531.1
92556.4
92549.1
92562.9
92560.9
92567
92566.8
92566.7
92567.2
92561.1
92563.3
92550
92557.5
92533.2
92554.5
92510
92564.2
92477.3
92609.8
92432.7
92758.3
92410.7
92364
92742.4
92532.9
92744.9
92616
92736
92662.5
92731.1
92691.4
92731.1
92710.9
92733
92723.9
92733.6
92731.6
92731
92734.8
92723.9
92735.1
92711.4
92735.1
92692.8
92738.3
92665
92749.3
92619.9
92769.6
92538.5
92788.5
92367.1
89789.1
90440.3
90302.1
90763.4
90714.6
91042
91040.2
91267.4
91285.4
91437.2
91459
91551.7
91568.2
91611.6
91618.4
91617
91613.1
91566.6
91553.8
91457
91440.6
91282.7
91273.1
91036.4
91051.9
90709.1
90780.5
90294.7
90469.1
89772.9
89405
90190.7
90164.5
90723.3
90728.4
91123.5
91143.1
91415.5
91439.2
91619.6
91640.9
91750.2
91765.1
91815.8
91822.3
91820.2
91817.9
91762.6
91752.7
91637.6
91623.1
91434.6
91420.6
91136.5
91131.4
90719
90735.5
90152
90207.7
89380.1
88096
88989.4
88995.1
89647.8
89680
90153.5
90196.6
90531.8
90574.7
90802
90837.6
90977.6
91001.4
91067
91076.6
91073.7
91068.5
90996.7
90978
90830.6
90801.2
90564.7
90529.9
90182.7
90150.1
89661.2
89642.4
88970.7
88979.1
88055.6
88631.3
89494.2
89515.8
90155.6
90189
90655.7
90692.9
91024
91058.6
91283
91310.9
91448.9
91467.5
91531.9
91539.9
91536.6
91533.7
91462.5
91449.5
91303.5
91282.1
91048
91021.1
90678
90649.7
90168.3
90144.9
89487.7
89473.5
88584.6
88857.4
89629.9
89594.4
90171.2
90163
90584.1
90591.8
90891.4
90905.9
91109.8
91125
91250.7
91262.4
91320.7
91326.9
91322.7
91322.9
91255.7
91251.1
91115.2
91108.5
90892.1
90888
90572.4
90577.7
90136.4
90160.7
89558.3
89610.3
88800.5
90504.3
91059.9
90973.9
91391.9
91342.9
91649
91623.7
91841.9
91830.4
91978.8
91975.1
92066.3
92066.7
92108.4
92111.4
92106.9
92112.3
92061
92070.1
91967.4
91982.9
91819.5
91846.5
91608.1
91654.1
91320.4
91397.5
90941.6
91062.7
90452.8
91601.6
91905
91750.8
91961.9
91868.6
92022.7
91967.1
92080.5
92048.3
92128.4
92111.3
92161.6
92154.8
92177.1
92178.4
92172.9
92182.1
92148.1
92167
92102.5
92135
92036.3
92089.5
91950.4
92035.5
91844.9
91979.7
91716.5
91927.5
91550.9
93689.1
93671.7
93502.9
93461.2
93348.3
93318.4
93236.3
93219.1
93160.2
93151.6
93112.5
93108.1
93087.2
93083.7
93080.3
93075.7
93090.1
93083.9
93117.2
93109.8
93164.6
93157.4
93237.7
93232.3
93344.8
93341.1
93498.7
93488.7
93724.7
93668.3
94956.7
94240.3
94136.1
93741.6
93658.9
93449.3
93386
93273
93226.9
93166.4
93136
93104.2
93088.4
93072.8
93071.1
93066.2
93078.9
93084.1
93112.3
93131.9
93178.1
93222.9
93290.5
93382.1
93475.8
93654.7
93782.1
94130.5
94313.4
94979.9
96888.2
95895.8
95715
95142.9
94977.8
94634.9
94504
94292.7
94197.4
94068.1
94004.8
93929.8
93895
93859.4
93851
93848.3
93865.6
93895.7
93939.9
94009.3
94083.1
94206.7
94313.8
94520
94663.3
95003.5
95178.8
95755.9
95943.6
96986.4
94005.8
94046
94022.2
93978.5
93946.8
93882.7
93849.7
93790.8
93761.9
93716.5
93695.2
93664.6
93652.6
93636.3
93634.5
93631.5
93640.1
93650.4
93669.5
93693.3
93722.4
93759.9
93797.5
93847
93889.3
93942
93982.1
94013.7
94044.3
93994.3
95065.1
94977
94920.4
94787.4
94720.7
94597.2
94535.2
94435.7
94384.7
94311.8
94275
94227.4
94206
94182.1
94176.7
94175.2
94186.1
94207
94234
94278.4
94320.9
94390.5
94446.9
94543.2
94609.8
94730.4
94800
94931.2
94989.4
95079.1
94103.8
94101.3
94094.8
94077.4
94067.9
94042.8
94031.7
94005.6
93994.6
93972.1
93963.2
93946.8
93941.6
93932.4
93931.9
93930.4
93934.8
93940.9
93949.8
93963
93975.4
93994.3
94008.6
94030.7
94044.6
94065.6
94077.1
94091.4
94099.2
94100.5
94554.8
94544.4
94528.7
94499.2
94476.8
94440.2
94416.7
94381.2
94360.2
94330.7
94314.7
94293.8
94284.3
94273.3
94271.2
94270.5
94275.9
94285.5
94298
94317.3
94336
94363.6
94386.7
94420.1
94445.1
94479.6
94502.7
94530.5
94546.6
94556.4
94154.2
94152.9
94149.8
94143.3
94139
94129.3
94124.5
94113.9
94109.3
94099.7
94096.1
94088.8
94086.9
94082.8
94083
94082.4
94084.6
94087.5
94091.5
94097.3
94102.5
94110.4
94116.1
94124.7
94130.2
94137.9
94142.6
94147.6
94150.9
94151.7
94376.5
94374.3
94369.5
94361.5
94354.1
94342.8
94334.5
94322.5
94314.8
94304.1
94298.1
94290.2
94286.8
94282.6
94282.1
94282
94284.5
94288.3
94293.4
94300.6
94307.8
94317.4
94325.8
94336.4
94344.9
94354.6
94361.9
94368.7
94373.4
94375.1
94187.8
94187.3
94185.9
94183.5
94181.5
94177.7
94175.5
94171.3
94169.2
94165.4
94163.9
94161.1
94160.5
94158.9
94159.3
94159.2
94160.5
94161.8
94163.6
94165.9
94168.2
94171.1
94173.4
94176.3
94178.4
94180.9
94182.6
94184.1
94185.3
94185.4
94303.7
94303.1
94301.4
94298.8
94296.2
94292.4
94289.4
94285.2
94282.5
94278.7
94276.6
94273.9
94272.8
94271.4
94271.6
94271.7
94272.9
94274.4
94276.5
94279
94281.6
94284.7
94287.6
94290.7
94293.5
94296.1
94298.3
94300
94301.4
94301.8
94209
94208.8
94208.2
94207.2
94206.2
94204.7
94203.6
94201.9
94201
94199.5
94198.9
94197.8
94197.7
94197.3
94197.6
94197.7
94198.5
94199.1
94200
94200.9
94201.9
94202.8
94203.7
94204.6
94205.3
94205.9
94206.5
94206.8
94207.1
94207.1
94271
94270.7
94270.1
94269.1
94268.1
94266.6
94265.5
94263.9
94262.9
94261.5
94260.8
94259.9
94259.6
94259.2
94259.4
94259.6
94260.2
94260.8
94261.7
94262.5
94263.6
94264.5
94265.5
94266.4
94267.2
94267.9
94268.5
94268.9
94269.3
94269.4
94221.7
94221.6
94221.3
94220.8
94220.4
94219.7
94219.2
94218.5
94218
94217.4
94217.2
94216.8
94216.7
94216.6
94216.8
94216.9
94217.3
94217.5
94218
94218.3
94218.8
94219.1
94219.5
94219.7
94220
94220.2
94220.4
94220.5
94220.5
94220.6
94255.3
94255.2
94254.9
94254.6
94254.2
94253.6
94253.1
94252.5
94252.1
94251.6
94251.3
94250.9
94250.8
94250.6
94250.7
94250.7
94251
94251.2
94251.6
94251.9
94252.3
94252.6
94253
94253.4
94253.7
94254
94254.2
94254.4
94254.5
94254.6
94229.2
94229.2
94229.1
94228.9
94228.7
94228.5
94228.3
94228
94227.8
94227.5
94227.3
94227.1
94227
94226.9
94226.9
94226.8
94227
94227
94227.2
94227.3
94227.6
94227.8
94228
94228.2
94228.5
94228.7
94228.8
94229
94229.1
94229.2
94247.8
94247.8
94247.7
94247.6
94247.5
94247.3
94247.1
94246.9
94246.8
94246.5
94246.3
94246.1
94246
94245.8
94245.7
94245.6
94245.6
94245.6
94245.7
94245.8
94246
94246.2
94246.5
94246.8
94247.1
94247.4
94247.7
94247.9
94248
94248.2
94233.8
94233.8
94233.8
94233.8
94233.8
94233.7
94233.7
94233.6
94233.5
94233.3
94233.2
94233
94232.9
94232.6
94232.5
94232.3
94232.2
94232.1
94232.2
94232.2
94232.4
94232.6
94232.9
94233.2
94233.5
94233.8
94234.1
94234.4
94234.5
94234.6
94244
94244
94244
94244.1
94244.1
94244.1
94244.1
94244.1
94244
94243.9
94243.7
94243.5
94243.3
94243.1
94242.9
94242.6
94242.5
94242.4
94242.4
94242.4
94242.6
94242.8
94243.1
94243.4
94243.8
94244.2
94244.5
94244.8
94245
94245.1
94236
94236
94236
94236.1
94236.2
94236.3
94236.3
94236.3
94236.3
94236.2
94236.1
94235.9
94235.7
94235.5
94235.2
94235
94234.8
94234.7
94234.6
94234.6
94234.8
94235
94235.3
94235.6
94236
94236.4
94236.7
94237
94237.2
94237.3
94241.5
94241.6
94241.6
94241.7
94241.8
94241.9
94241.9
94242
94242
94241.9
94241.8
94241.6
94241.4
94241.1
94240.9
94240.7
94240.5
94240.4
94240.3
94240.4
94240.5
94240.7
94241
94241.3
94241.7
94242.1
94242.4
94242.7
94242.9
94243
94236.7
94236.8
94236.8
94236.9
94237
94237.1
94237.2
94237.2
94237.2
94237.2
94237.1
94236.9
94236.7
94236.5
94236.3
94236.1
94236
94235.8
94235.8
94235.8
94235.9
94236.1
94236.4
94236.7
94237
94237.3
94237.6
94237.9
94238
94238.2
94240.2
94240.2
94240.3
94240.3
94240.4
94240.5
94240.5
94240.6
94240.6
94240.5
94240.4
94240.3
94240.2
94240
94239.8
94239.7
94239.5
94239.4
94239.4
94239.4
94239.5
94239.7
94239.9
94240.2
94240.4
94240.7
94240.9
94241.1
94241.3
94241.3
94237.4
94237.4
94237.5
94237.5
94237.6
94237.6
94237.7
94237.7
94237.7
94237.7
94237.6
94237.5
94237.4
94237.3
94237.1
94237
94236.9
94236.9
94236.8
94236.9
94236.9
94237
94237.2
94237.4
94237.5
94237.7
94237.9
94238
94238.1
94238.2
94239.9
94239.9
94240
94240
94240
94240.1
94240.1
94240.1
94240.1
94240
94240
94239.9
94239.9
94239.8
94239.7
94239.6
94239.6
94239.6
94239.5
94239.6
94239.6
94239.7
94239.8
94239.9
94240
94240.1
94240.2
94240.3
94240.3
94240.4
94237.9
94237.9
94237.9
94237.9
94238
94238
94238
94238
94238
94237.9
94237.9
94237.9
94237.9
94237.9
94237.9
94237.8
94237.8
94237.8
94237.8
94237.9
94237.9
94237.9
94237.9
94238
94238
94238.1
94238.1
94238.2
94238.2
94238.2
SCALARS density float 1
LOOKUP_TABLE default
1.21222
1.21223
1.21223
1.21223
1.21223
1.21223
1.21223
1.21223
1.21223
1.21224
1.21224
1.21224
1.21224
1.21224
1.21224
1.21224
1.21224
1.21223
1.21223
1.21223
1.21223
1.21223
1.21223
1.21223
1.21223
1.21223
1.21223
1.21223
1.21223
1.21223
1.21242
1.21242
1.21242
1.21243
1.21243
1.21243
1.21244
1.21244
1.21244
1.21245
1.21245
1.21245
1.21245
1.21245
1.21245
1.21245
1.21245
1.21245
1.21244
1.21244
1.21244
1.21244
1.21244
1.21243
1.21243
1.21243
1.21243
1.21243
1.21243
1.21243
1.2123
1.2123
1.21231
1.21231
1.21231
1.21232
1.21232
1.21232
1.21233
1.21233
1.21233
1.21234
1.21234
1.21234
1.21234
1.21234
1.21234
1.21233
1.21233
1.21233
1.21233
1.21232
1.21232
1.21232
1.21231
1.21231
1.21231
1.21231
1.21231
1.21231
1.21231
1.21231
1.21232
1.21232
1.21232
1.21233
1.21233
1.21234
1.21234
1.21234
1.21235
1.21235
1.21235
1.21236
1.21236
1.21236
1.21236
1.21235
1.21235
1.21235
1.21234
1.21234
1.21233
1.21233
1.21233
1.21232
1.21232
1.21232
1.21231
1.21231
1.21239
1.21239
1.21239
1.21239
1.21239
1.2124
1.2124
1.2124
1.21241
1.21241
1.21242
1.21242
1.21242
1.21243
1.21243
1.21243
1.21243
1.21243
1.21243
1.21242
1.21242
1.21241
1.21241
1.2124
1.2124
1.21239
1.21239
1.21238
1.21238
1.21238
1.21224
1.21224
1.21224
1.21225
1.21225
1.21225
1.21225
1.21226
1.21226
1.21226
1.21227
1.21227
1.21227
1.21228
1.21228
1.21228
1.21228
1.21228
1.21228
1.21228
1.21228
1.21227
1.21226
1.21226
1.21225
1.21224
1.21224
1.21223
1.21223
1.21223
1.21247
1.21247
1.21247
1.21247
1.21247
1.21247
1.21247
1.21248
1.21248
1.21248
1.21249
1.21249
1.21249
1.2125
1.2125
1.2125
1.21251
1.21251
1.21251
1.21251
1.2125
1.2125
1.21249
1.21248
1.21248
1.21247
1.21246
1.21246
1.21245
1.21245
1.21219
1.21219
1.21219
1.21218
1.21218
1.21218
1.21218
1.21218
1.21218
1.21218
1.21218
1.21219
1.21219
1.2122
1.2122
1.21221
1.21221
1.21221
1.21221
1.21221
1.21221
1.2122
1.2122
1.21219
1.21218
1.21218
1.21217
1.21217
1.21216
1.21216
1.21257
1.21257
1.21257
1.21256
1.21256
1.21256
1.21255
1.21255
1.21255
1.21255
1.21255
1.21255
1.21256
1.21256
1.21257
1.21257
1.21258
1.21258
1.21258
1.21258
1.21258
1.21258
1.21257
1.21257
1.21256
1.21255
1.21255
1.21254
1.21254
1.21254
1.21212
1.21212
1.21212
1.21211
1.21211
1.2121
1.2121
1.21209
1.21209
1.21208
1.21208
1.21209
1.21209
1.21209
1.2121
1.2121
1.21211
1.21211
1.21212
1.21212
1.21212
1.21212
1.21211
1.21211
1.21211
1.2121
1.21209
1.21209
1.21209
1.21209
1.21269
1.21268
1.21268
1.21267
1.21266
1.21266
1.21265
1.21264
1.21263
1.21263
1.21263
1.21263
1.21263
1.21263
1.21263
1.21264
1.21265
1.21265
1.21266
1.21266
1.21266
1.21266
1.21266
1.21266
1.21266
1.21266
1.21265
1.21265
1.21265
1.21265
1.21204
1.21204
1.21203
1.21202
1.21201
1.212
1.21199
1.21198
1.21197
1.21196
1.21196
1.21196
1.21196
1.21196
1.21196
1.21197
1.21197
1.21198
1.21198
1.21199
1.21199
1.212
1.212
1.212
1.212
1.21201
1.212
1.21201
1.212
1.21201
1.21284
1.21284
1.21283
1.21282
1.21281
1.21279
1.21278
1.21276
1.21275
1.21274
1.21273
1.21272
1.21272
1.21272
1.21272
1.21273
1.21273
1.21274
1.21275
1.21276
1.21276
1.21277
1.21278
1.21279
1.21279
1.2128
1.2128
1.21281
1.21281
1.21281
1.21194
1.21193
1.21193
1.21191
1.2119
1.21188
1.21187
1.21185
1.21183
1.21181
1.2118
1.21179
1.21178
1.21178
1.21178
1.21178
1.21178
1.21179
1.2118
1.21181
1.21183
1.21184
1.21185
1.21187
1.21188
1.21189
1.2119
1.21191
1.21191
1.21191
1.21307
1.21306
1.21305
1.21303
1.21301
1.21299
1.21297
1.21294
1.21292
1.21289
1.21287
1.21285
1.21284
1.21283
1.21283
1.21283
1.21284
1.21285
1.21286
1.21288
1.2129
1.21292
1.21294
1.21297
1.21298
1.21301
1.21302
1.21304
1.21304
1.21305
1.21183
1.21182
1.21181
1.21178
1.21176
1.21173
1.2117
1.21166
1.21163
1.21159
1.21157
1.21154
1.21152
1.21151
1.2115
1.2115
1.21151
1.21152
1.21154
1.21156
1.21159
1.21162
1.21165
1.21169
1.21172
1.21175
1.21177
1.2118
1.21181
1.21182
1.21343
1.21342
1.2134
1.21336
1.21333
1.21327
1.21323
1.21317
1.21312
1.21307
1.21303
1.21298
1.21296
1.21293
1.21292
1.21292
1.21293
1.21295
1.21297
1.21301
1.21305
1.21311
1.21315
1.21321
1.21326
1.21332
1.21335
1.2134
1.21341
1.21343
1.21179
1.21176
1.21174
1.21167
1.21163
1.21154
1.21148
1.21139
1.21133
1.21124
1.21119
1.21112
1.21108
1.21105
1.21103
1.21103
1.21103
1.21106
1.2111
1.21116
1.21121
1.2113
1.21136
1.21146
1.21152
1.21161
1.21166
1.21173
1.21175
1.21179
1.21415
1.21409
1.21405
1.21394
1.21385
1.21371
1.2136
1.21345
1.21334
1.21321
1.21312
1.21302
1.21295
1.2129
1.21287
1.21287
1.21288
1.21293
1.21299
1.21308
1.21317
1.21331
1.21342
1.21357
1.21368
1.21384
1.21393
1.21405
1.21409
1.21415
1.21213
1.212
1.21195
1.21172
1.21161
1.21135
1.2112
1.21095
1.21081
1.2106
1.21047
1.21032
1.21024
1.21016
1.21012
1.21012
1.21014
1.21021
1.21029
1.21043
1.21055
1.21076
1.21091
1.21116
1.21131
1.21158
1.2117
1.21194
1.21199
1.21212
1.2158
1.21556
1.21544
1.21504
1.2148
1.21436
1.21409
1.21368
1.21343
1.2131
1.21289
1.21266
1.21252
1.2124
1.21235
1.21235
1.21238
1.2125
1.21262
1.21285
1.21305
1.21338
1.21364
1.21405
1.21432
1.21478
1.21501
1.21543
1.21555
1.21579
1.21413
1.2134
1.21322
1.21227
1.21194
1.21108
1.21072
1.21003
1.2097
1.2092
1.20894
1.20861
1.20845
1.20829
1.20823
1.20822
1.20827
1.20842
1.20857
1.2089
1.20915
1.20965
1.20997
1.21066
1.21103
1.21189
1.21221
1.21317
1.21334
1.21408
1.22054
1.21889
1.21847
1.21687
1.21621
1.21488
1.21423
1.21321
1.21268
1.21195
1.21157
1.2111
1.21087
1.21064
1.21056
1.21055
1.21062
1.21084
1.21106
1.21153
1.2119
1.21264
1.21315
1.21419
1.21481
1.21618
1.2168
1.21844
1.21883
1.22053
1.22456
1.21768
1.21689
1.21275
1.2118
1.20935
1.20854
1.20707
1.20647
1.20559
1.20519
1.20469
1.20446
1.20424
1.20416
1.20415
1.20422
1.20444
1.20466
1.20516
1.20555
1.20642
1.20701
1.20848
1.20927
1.21171
1.21264
1.21677
1.21753
1.22439
1.23114
1.2235
1.22046
1.21611
1.21453
1.21188
1.21089
1.20925
1.2086
1.20759
1.20717
1.2066
1.20636
1.20609
1.20601
1.20601
1.20608
1.20635
1.20657
1.20716
1.20756
1.20858
1.20919