# vtk DataFile Version 3.0
Structured Grid Example
ASCII
DATASET STRUCTURED_GRID
DIMENSIONS 30 60 1
POINTS 1800 FLOAT
0.0416666 0.0166667 0
0.0416664 0.05 0
0.0416662 0.0833333 0
0.041666 0.116667 0
0.0416658 0.15 0
0.0416656 0.183333 0
0.0416654 0.216667 0
0.0416653 0.25 0
0.0416651 0.283333 0
0.041665 0.316667 0
0.0416649 0.35 0
0.0416648 0.383333 0
0.0416648 0.416667 0
0.0416647 0.45 0
0.0416647 0.483333 0
0.0416647 0.516667 0
0.0416647 0.55 0
0.0416648 0.583333 0
0.0416648 0.616667 0
0.0416649 0.65 0
0.041665 0.683333 0
0.0416651 0.716667 0
0.0416653 0.75 0
0.0416654 0.783333 0
0.0416656 0.816667 0
0.0416658 0.85 0
0.041666 0.883333 0
0.0416662 0.916667 0
0.0416664 0.95 0
0.0416666 0.983333 0
0.125 0.0166667 0
0.124999 0.05 0
0.124998 0.0833334 0
0.124998 0.116667 0
0.124997 0.15 0
0.124997 0.183333 0
0.124996 0.216667 0
0.124996 0.25 0
0.124995 0.283333 0
0.124995 0.316667 0
0.124995 0.35 0
0.124994 0.383333 0
0.124994 0.416667 0
0.124994 0.45 0
0.124994 0.483333 0
0.124994 0.516667 0
0.124994 0.55 0
0.124994 0.583333 0
0.124994 0.616667 0
0.124995 0.65 0
0.124995 0.683333 0
0.124995 0.716667 0
0.124996 0.75 0
0.124996 0.783333 0
0.124997 0.816667 0
0.124997 0.85 0
0.124998 0.883333 0
0.124998 0.916667 0
0.124999 0.95 0
0.125 0.983333 0
0.208333 0.0166667 0
0.208332 0.0500001 0
0.208331 0.0833334 0
0.20833 0.116667 0
0.208329 0.15 0
0.208328 0.183334 0
0.208327 0.216667 0
0.208326 0.25 0
0.208325 0.283334 0
0.208325 0.316667 0
0.208324 0.35 0
0.208324 0.383333 0
0.208323 0.416667 0
0.208323 0.45 0
0.208323 0.483333 0
0.208323 0.516667 0
0.208323 0.55 0
0.208323 0.583333 0
0.208324 0.616667 0
0.208324 0.65 0
0.208325 0.683333 0
0.208325 0.716666 0
0.208326 0.75 0
0.208327 0.783333 0
0.208328 0.816666 0
0.208329 0.85 0
0.20833 0.883333 0
0.208331 0.916667 0
0.208332 0.95 0
0.208333 0.983333 0
0.291666 0.0166667 0
0.291664 0.0500001 0
0.291663 0.0833335 0
0.291661 0.116667 0
0.29166 0.15 0
0.291658 0.183334 0
0.291657 0.216667 0
0.291656 0.25 0
0.291655 0.283334 0
0.291654 0.316667 0
0.291653 0.35 0
0.291652 0.383334 0
0.291652 0.416667 0
0.291651 0.45 0
0.291651 0.483333 0
0.291651 0.516667 0
0.291651 0.55 0
0.291652 0.583333 0
0.291652 0.616666 0
0.291653 0.65 0
0.291654 0.683333 0
0.291655 0.716666 0
0.291656 0.75 0
0.291657 0.783333 0
0.291658 0.816666 0
0.29166 0.85 0
0.291661 0.883333 0
0.291663 0.916666 0
0.291664 0.95 0
0.291666 0.983333 0
0.374999 0.0166667 0
0.374997 0.0500002 0
0.374994 0.0833337 0
0.374992 0.116667 0
0.37499 0.150001 0
0.374988 0.183334 0
0.374986 0.216667 0
0.374985 0.250001 0
0.374983 0.283334 0
0.374982 0.316667 0
0.37498 0.350001 0
0.37498 0.383334 0
0.374979 0.416667 0
0.374978 0.45 0
0.374978 0.483333 0
0.374978 0.516667 0
0.374978 0.55 0
0.374979 0.583333 0
0.37498 0.616666 0
0.37498 0.649999 0
0.374982 0.683333 0
0.374983 0.716666 0
0.374985 0.749999 0
0.374986 0.783333 0
0.374988 0.816666 0
0.37499 0.849999 0
0.374992 0.883333 0
0.374994 0.916666 0
0.374997 0.95 0
0.374999 0.983333 0
0.458332 0.0166668 0
0.458329 0.0500003 0
0.458326 0.0833339 0
0.458323 0.116667 0
0.45832 0.150001 0
0.458317 0.183334 0
0.458315 0.216668 0
0.458312 0.250001 0
0.45831 0.283334 0
0.458308 0.316668 0
0.458307 0.350001 0
0.458306 0.383334 0
0.458305 0.416667 0
0.458304 0.45 0
0.458304 0.483333 0
0.458304 0.516667 0
0.458304 0.55 0
0.458305 0.583333 0
0.458306 0.616666 0
0.458307 0.649999 0
0.458308 0.683332 0
0.45831 0.716666 0
0.458312 0.749999 0
0.458315 0.783332 0
0.458317 0.816666 0
0.45832 0.849999 0
0.458323 0.883333 0
0.458326 0.916666 0
0.458329 0.95 0
0.458332 0.983333 0
0.541665 0.0166669 0
0.54166 0.0500006 0
0.541656 0.0833342 0
0.541653 0.116668 0
0.541649 0.150001 0
0.541645 0.183335 0
0.541642 0.216668 0
0.541639 0.250002 0
0.541636 0.283335 0
0.541634 0.316668 0
0.541632 0.350001 0
0.54163 0.383335 0
0.541629 0.416668 0
0.541628 0.450001 0
0.541627 0.483334 0
0.541627 0.516666 0
0.541628 0.549999 0
0.541629 0.583332 0
0.54163 0.616665 0
0.541632 0.649999 0
0.541634 0.683332 0
0.541636 0.716665 0
0.541639 0.749998 0
0.541642 0.783332 0
0.541645 0.816665 0
0.541649 0.849999 0
0.541653 0.883332 0
0.541656 0.916666 0
0.54166 0.949999 0
0.541665 0.983333 0
0.624997 0.016667 0
0.624992 0.0500009 0
0.624987 0.0833349 0
0.624981 0.116669 0
0.624976 0.150002 0
0.624972 0.183336 0
0.624967 0.21667 0
0.624963 0.250003 0
0.62496 0.283336 0
0.624956 0.316669 0
0.624954 0.350002 0
0.624952 0.383335 0
0.62495 0.416668 0
0.624949 0.450001 0
0.624948 0.483334 0
0.624948 0.516666 0
0.624949 0.549999 0
0.62495 0.583332 0
0.624952 0.616665 0
0.624954 0.649998 0
0.624956 0.683331 0
0.62496 0.716664 0
0.624963 0.749997 0
0.624967 0.78333 0
0.624972 0.816664 0
0.624976 0.849998 0
0.624981 0.883331 0
0.624987 0.916665 0
0.624992 0.949999 0
0.624997 0.983333 0
0.70833 0.0166672 0
0.708323 0.0500016 0
0.708316 0.0833359 0
0.708309 0.11667 0
0.708302 0.150004 0
0.708296 0.183338 0
0.708291 0.216672 0
0.708285 0.250005 0
0.708281 0.283338 0
0.708276 0.316671 0
0.708273 0.350004 0
0.70827 0.383337 0
0.708268 0.416669 0
0.708266 0.450002 0
0.708265 0.483334 0
0.708265 0.516666 0
0.708266 0.549998 0
0.708268 0.583331 0
0.70827 0.616663 0
0.708273 0.649996 0
0.708276 0.683329 0
0.708281 0.716662 0
0.708285 0.749995 0
0.708291 0.783328 0
0.708296 0.816662 0
0.708302 0.849996 0
0.708309 0.88333 0
0.708316 0.916664 0
0.708323 0.949998 0
0.70833 0.983333 0
0.791662 0.0166676 0
0.791653 0.0500026 0
0.791644 0.0833376 0
0.791635 0.116672 0
0.791626 0.150007 0
0.791618 0.183341 0
0.791611 0.216675 0
0.791604 0.250009 0
0.791598 0.283342 0
0.791592 0.316674 0
0.791588 0.350007 0
0.791584 0.383339 0
0.791581 0.416671 0
0.791579 0.450003 0
0.791578 0.483334 0
0.791578 0.516666 0
0.791579 0.549997 0
0.791581 0.583329 0
0.791584 0.616661 0
0.791588 0.649993 0
0.791592 0.683326 0
0.791598 0.716658 0
0.791604 0.749991 0
0.791611 0.783325 0
0.791618 0.816659 0
0.791626 0.849993 0
0.791635 0.883328 0
0.791644 0.916662 0
0.791653 0.949997 0
0.791662 0.983332 0
0.874994 0.0166682 0
0.874982 0.0500044 0
0.87497 0.0833405 0
0.874959 0.116676 0
0.874948 0.150012 0
0.874937 0.183346 0
0.874927 0.216681 0
0.874918 0.250014 0
0.87491 0.283347 0
0.874903 0.31668 0
0.874897 0.350012 0
0.874892 0.383343 0
0.874889 0.416674 0
0.874886 0.450004 0
0.874885 0.483335 0
0.874885 0.516665 0
0.874886 0.549996 0
0.874889 0.583326 0
0.874892 0.616657 0
0.874897 0.649988 0
0.874903 0.68332 0
0.87491 0.716653 0
0.874918 0.749986 0
0.874927 0.783319 0
0.874937 0.816654 0
0.874948 0.849988 0
0.874959 0.883324 0
0.87497 0.916659 0
0.874982 0.949996 0
0.874994 0.983332 0
0.958325 0.0166692 0
0.95831 0.0500074 0
0.958294 0.0833454 0
0.958279 0.116683 0
0.958265 0.150019 0
0.958251 0.183355 0
0.958239 0.21669 0
0.958227 0.250024 0
0.958217 0.283357 0
0.958207 0.316689 0
0.9582 0.350019 0
0.958193 0.383349 0
0.958189 0.416679 0
0.958185 0.450007 0
0.958184 0.483336 0
0.958184 0.516664 0
0.958185 0.549993 0
0.958189 0.583321 0
0.958193 0.616651 0
0.9582 0.649981 0
0.958207 0.683311 0
0.958217 0.716643 0
0.958227 0.749976 0
0.958239 0.78331 0
0.958251 0.816645 0
0.958265 0.849981 0
0.958279 0.883317 0
0.958294 0.916655 0
0.95831 0.949993 0
0.958325 0.983331 0
1.04166 0.0166709 0
1.04164 0.0500125 0
1.04162 0.0833535 0
1.0416 0.116694 0
1.04158 0.150033 0
1.04156 0.18337 0
1.04154 0.216706 0
1.04153 0.25004 0
1.04152 0.283373 0
1.0415 0.316703 0
1.04149 0.350033 0
1.04148 0.38336 0
1.04148 0.416687 0
1.04147 0.450012 0
1.04147 0.483338 0
1.04147 0.516662 0
1.04147 0.549988 0
1.04148 0.583313 0
1.04148 0.61664 0
1.04149 0.649967 0
1.0415 0.683297 0
1.04152 0.716627 0
1.04153 0.74996 0
1.04154 0.783294 0
1.04156 0.81663 0
1.04158 0.849967 0
1.0416 0.883306 0
1.04162 0.916646 0
1.04164 0.949988 0
1.04166 0.983329 0
1.12499 0.0166738 0
1.12496 0.050021 0
1.12493 0.0833672 0
1.12491 0.116712 0
1.12488 0.150055 0
1.12486 0.183395 0
1.12484 0.216733 0
1.12482 0.250068 0
1.1248 0.283399 0
1.12479 0.316728 0
1.12477 0.350054 0
1.12476 0.383378 0
1.12476 0.4167 0
1.12475 0.450021 0
1.12475 0.48334 0
1.12475 0.51666 0
1.12475 0.549979 0
1.12476 0.5833 0
1.12476 0.616622 0
1.12477 0.649946 0
1.12479 0.683272 0
1.1248 0.716601 0
1.12482 0.749932 0
1.12484 0.783267 0
1.12486 0.816605 0
1.12488 0.849945 0
1.12491 0.883288 0
1.12493 0.916633 0
1.12496 0.949979 0
1.12499 0.983326 0
1.20832 0.0166786 0
1.20828 0.0500352 0
1.20825 0.0833903 0
1.20821 0.116743 0
1.20818 0.150092 0
1.20815 0.183437 0
1.20813 0.216778 0
1.2081 0.250113 0
1.20808 0.283444 0
1.20806 0.31677 0
1.20804 0.350091 0
1.20803 0.383409 0
1.20802 0.416723 0
1.20801 0.450035 0
1.20801 0.483345 0
1.20801 0.516655 0
1.20801 0.549965 0
1.20802 0.583277 0
1.20803 0.616591 0
1.20804 0.649909 0
1.20806 0.68323 0
1.20808 0.716556 0
1.2081 0.749887 0
1.20813 0.783222 0
1.20815 0.816563 0
1.20818 0.849908 0
1.20821 0.883257 0
1.20825 0.91661 0
1.20828 0.949965 0
1.20832 0.983321 0
1.29164 0.0166867 0
1.2916 0.0500593 0
1.29155 0.0834291 0
1.29151 0.116795 0
1.29147 0.150154 0
1.29143 0.183507 0
1.2914 0.216853 0
1.29136 0.25019 0
1.29133 0.283518 0
1.29131 0.316839 0
1.29129 0.350152 0
1.29127 0.383459 0
1.29126 0.416761 0
1.29125 0.450058 0
1.29124 0.483353 0
1.29124 0.516647 0
1.29125 0.549942 0
1.29126 0.583239 0
1.29127 0.616541 0
1.29129 0.649848 0
1.29131 0.683161 0
1.29133 0.716482 0
1.29136 0.74981 0
1.2914 0.783147 0
1.29143 0.816493 0
1.29147 0.849846 0
1.29151 0.883205 0
1.29155 0.916571 0
1.2916 0.949941 0
1.29164 0.983313 0
1.37497 0.0167005 0
1.37491 0.0501 0
1.37485 0.0834948 0
1.3748 0.116882 0
1.37474 0.15026 0
1.37469 0.183626 0
1.37465 0.216979 0
1.3746 0.250318 0
1.37457 0.283643 0
1.37453 0.316955 0
1.37451 0.350254 0
1.37449 0.383543 0
1.37447 0.416823 0
1.37446 0.450097 0
1.37445 0.483366 0
1.37445 0.516634 0
1.37446 0.549903 0
1.37447 0.583177 0
1.37449 0.616457 0
1.37451 0.649746 0
1.37453 0.683045 0
1.37457 0.716357 0
1.3746 0.749682 0
1.37465 0.783021 0
1.37469 0.816374 0
1.37474 0.84974 0
1.3748 0.883118 0
1.37485 0.916505 0
1.37491 0.9499 0
1.37497 0.983299 0
1.45829 0.0167241 0
[...]
POINT_DATA 1800
SCALARS pressure float 1
LOOKUP_TABLE default
94290.4
94290.4
94290.3
94290.3
94290.2
94290.1
94290.1
94290
94289.9
94289.8
94289.7
94289.7
94289.7
94289.6
94289.6
94289.6
94289.7
94289.7
94289.8
94289.8
94289.9
94289.9
94290
94290.1
94290.1
94290.2
94290.2
94290.3
94290.3
94290.3
94312.4
94312.4
94312.4
94312.3
94312.2
94312.1
94312
94311.9
94311.8
94311.7
94311.7
94311.6
94311.5
94311.5
94311.5
94311.5
94311.5
94311.6
94311.6
94311.7
94311.8
94311.9
94311.9
94312
94312.1
94312.2
94312.2
94312.3
94312.3
94312.3
94302.6
94302.6
94302.6
94302.6
94302.5
94302.4
94302.4
94302.3
94302.2
94302.2
94302.1
94302
94302
94302
94301.9
94301.9
94301.9
94302
94302
94302
94302.1
94302.2
94302.2
94302.3
94302.4
94302.5
94302.5
94302.6
94302.6
94302.6
94301.4
94301.4
94301.4
94301.4
94301.3
94301.3
94301.3
94301.2
94301.2
94301.1
94301.1
94301
94301
94300.9
94300.9
94300.9
94300.9
94300.9
94300.9
94300.9
94301
94301
94301.1
94301.2
94301.2
94301.3
94301.4
94301.4
94301.5
94301.5
94311.5
94311.5
94311.5
94311.6
94311.6
94311.6
94311.7
94311.7
94311.7
94311.7
94311.7
94311.7
94311.7
94311.6
94311.6
94311.5
94311.5
94311.5
94311.4
94311.4
94311.4
94311.4
94311.5
94311.5
94311.5
94311.6
94311.6
94311.7
94311.7
94311.7
94292
94292
94292.1
94292.2
94292.2
94292.4
94292.4
94292.6
94292.6
94292.7
94292.7
94292.7
94292.7
94292.7
94292.7
94292.6
94292.5
94292.4
94292.4
94292.3
94292.2
94292.2
94292.2
94292.2
94292.2
94292.2
94292.3
94292.3
94292.3
94292.3
94319
94319.1
94319.1
94319.3
94319.4
94319.6
94319.8
94320
94320.1
94320.3
94320.4
94320.4
94320.5
94320.4
94320.4
94320.3
94320.2
94320.1
94319.9
94319.8
94319.7
94319.6
94319.5
94319.5
94319.4
94319.4
94319.4
94319.4
94319.4
94319.4
94282.8
94282.9
94282.9
94283.2
94283.4
94283.6
94283.9
94284.1
94284.4
94284.6
94284.7
94284.8
94284.9
94284.9
94284.8
94284.7
94284.5
94284.4
94284.2
94284
94283.9
94283.7
94283.6
94283.5
94283.4
94283.3
94283.3
94283.2
94283.3
94283.2
94327.4
94327.5
94327.6
94327.9
94328.1
94328.5
94328.8
94329.1
94329.4
94329.7
94329.9
94330
94330.1
94330.1
94330
94329.9
94329.8
94329.6
94329.3
94329.1
94328.9
94328.7
94328.5
94328.4
94328.2
94328.1
94328
94328
94327.9
94327.9
94272.7
94272.8
94273
94273.2
94273.5
94273.8
94274.2
94274.5
94274.8
94275.1
94275.3
94275.5
94275.6
94275.6
94275.5
94275.4
94275.2
94275
94274.8
94274.6
94274.3
94274.1
94273.9
94273.7
94273.5
94273.4
94273.3
94273.2
94273.2
94273.1
94338.5
94338.6
94338.7
94339
94339.2
94339.6
94339.9
94340.2
94340.5
94340.8
94341
94341.2
94341.2
94341.3
94341.2
94341.1
94341
94340.8
94340.5
94340.3
94340.1
94339.8
94339.6
94339.4
94339.2
94339.1
94339
94338.9
94338.8
94338.8
94261
94261
94261.1
94261.2
94261.4
94261.6
94261.8
94262
94262.2
94262.4
94262.5
94262.6
94262.6
94262.6
94262.5
94262.4
94262.3
94262.2
94262
94261.9
94261.7
94261.5
94261.4
94261.3
94261.2
94261.1
94261
94261
94261
94261
94354.3
94354.3
94354.3
94354.3
94354.4
94354.4
94354.4
94354.4
94354.4
94354.4
94354.4
94354.3
94354.3
94354.2
94354.1
94354.1
94354
94354
94353.9
94353.9
94353.9
94353.9
94353.9
94353.9
94353.9
94354
94354
94354.1
94354.1
94354.1
94247.5
94247.2
94247.2
94246.8
94246.6
94246
94245.7
94245.2
94244.9
94244.3
94244
94243.6
94243.4
94243.1
94243
94243
94243
94243.1
94243.3
94243.6
94243.9
94244.3
94244.6
94245.1
94245.4
94245.9
94246.1
94246.5
94246.6
94246.8
94378.8
94378.3
94378.1
94377.3
94376.6
94375.5
94374.6
94373.4
94372.5
94371.4
94370.5
94369.7
94369.1
94368.7
94368.4
94368.4
94368.6
94369
94369.5
94370.3
94371
94372.1
94372.9
94374
94374.8
94375.9
94376.4
94377.2
94377.4
94377.9
94234.6
94233.6
94233
94231
94229.7
94227.1
94225.3
94222.5
94220.6
94218.1
94216.5
94214.6
94213.5
94212.5
94212.1
94212.1
94212.5
94213.4
94214.4
94216.2
94217.7
94220.1
94221.8
94224.4
94226
94228.5
94229.7
94231.5
94232
94233
94420.2
94418.5
94417.4
94414.1
94411.5
94407.1
94403.7
94399.1
94395.5
94391.3
94388.2
94385.2
94383.1
94381.5
94380.8
94380.8
94381.5
94383.1
94385.1
94388.1
94391
94395.1
94398.4
94402.9
94406
94410.2
94412.6
94415.7
94416.7
94418.3
94231.3
94227.7
94225.8
94218.8
94214.4
94205.5
94199.8
94190.6
94184.8
94176.8
94171.9
94166
94162.7
94159.6
94158.5
94158.5
94159.6
94162.6
94165.8
94171.5
94176.2
94184
94189.5
94198.4
94203.8
94212.4
94216.4
94223.2
94225
94228.4
94499.1
94493.4
94489.6
94478.3
94470.2
94456.1
94445.8
94431.4
94421.1
94408.5
94400
94390.8
94385.2
94380.4
94378.4
94378.5
94380.3
94385.2
94390.5
94399.7
94407.8
94420.3
94430.1
94444.4
94454.1
94468.1
94475.7
94486.9
94490.4
94496.1
94269.7
94255.9
94250.3
94224.8
94212.5
94183.1
94167.7
94140.1
94124.9
94102.2
94089.8
94073.9
94065.8
94057.7
94054.9
94054.8
94057.5
94065.4
94073.3
94088.8
94101
94123.2
94138
94165.1
94180.2
94208.9
94220.9
94246
94251.4
94265
94680.2
94654.9
94642.4
94600.3
94576.3
94530.4
94502.4
94460.3
94434.1
94400.2
94379.5
94356
94342.8
94330.8
94326.2
94326.3
94330.4
94342.5
94355
94378.7
94398.5
94432.7
94457.7
94500.1
94526.7
94573
94595.8
94638.3
94649.9
94675.5
94480.7
94400.5
94383.3
94278
94243.7
94147.6
94108.9
94032.3
93997.3
93941.7
93914.7
93878.9
93862.1
93844.5
93838.8
93838.6
93844.1
93861.2
93877.7
93913
93939.6
93994.4
94029
94104.6
94142.8
94237.9
94271.6
94376.3
94392.9
94473.2
95226.8
95041.3
94990.9
94814.8
94742.9
94598.7
94530
94420.2
94364.2
94286.2
94245.7
94196.2
94171.8
94147.8
94139.5
94139.6
94147
94171.3
94194.4
94244.5
94283.2
94362
94415.6
94526.9
94592
94738.8
94806
94985.7
95031.3
95220.6
95504.9
94783.7
94730.8
94287.6
94198.5
93933.4
93852.6
93692.5
93631.1
93535.2
93493.7
93439.3
93415.6
93391
93383.2
93383
93390.5
93414.7
93438.1
93491.8
93532.9
93627.9
93688.7
93847.3
93927.2
94190
94277.7
94718.6
94768.6
95489.4
96556.1
95645
95285.5
94790.2
94609.1
94312.3
94200.9
94018.8
93946.1
93835.2
93788.7
93725.2
93699
93670.1
93661.5
93661.6
93669.4
93698.6
93723.6
93787.8
93832.2
93944.8
94013.4
94199.2
94302.3
94607.3
94771.1
95283.9
95606.9
96555.2
92414.6
92724
92411.7
92577.6
92447.8
92531.5
92477.5
92521.3
92499.7
92523.8
92516.1
92529.4
92527.2
92533.2
92532.9
92532.9
92533.6
92527.6
92530.2
92517.2
92525.4
92502.1
92524.2
92481.7
92536.7
92454.4
92586.7
92420.4
92741.2
92420.4
92433
92805.6
92597.2
92803.8
92675.6
92791.6
92718.3
92784
92744.2
92782
92761.5
92782.3
92773
92782.1
92780
92779.4
92783.4
92773
92784.7
92762
92786.1
92745.6
92791.5
92720.7
92805
92679.3
92828.3
92602.8
92850.5
92436.9
89730.3
90385
90241.9
90709.9
90656.3
90990
90984.9
91216.9
91233.1
91388.2
91409
91503.7
91519.8
91564.1
91570.8
91569.3
91565.7
91518
91505.8
91406.8
91391.5
91230.1
91222.5
90980.8
90999.7
90650.6
90726.5
90234.5
90412.4
89715
89465.7
90252.1
90223.7
90785.4
90785.6
91183.4
91198.1
91472.3
91492.1
91673.5
91692.1
91801.8
91815.1
91865.9
91872
91869.7
91868.1
91812.5
91804.5
91688.7
91677.2
91487.5
91477.8
91191.7
91191.7
90776.6
90797.9
90211.9
90269.1
89442.5
88041.3
88940.6
88939
89600.5
89624.8
90106.9
90143.5
90485.6
90524
90756.1
90788.9
90932
90954.3
91021.3
91030.5
91027.4
91022.9
90949.4
90932.5
90781.8
90755.6
90513.9
90484
90129.8
90103.9
89606.4
89595.7
88915.5
88931
88002.9
88666
89533.3
89550.1
90196.7
90223.4
90696.8
90727.7
91064.3
91093.8
91322.2
91346.5
91487
91503.6
91569.1
91576.5
91573.1
91571.2
91498.5
91487.9
91339.2
91321.7
91083.4
91062
90713
90691.6
90203.3
90187
89523.1
89514
88621.5
88821.1
89599.1
89557.4
90141.6
90126
90554.2
90555.3
90860.8
90870.1
91078.1
91089.7
91218
91227.7
91287.2
91292.9
91288.5
91289.7
91221
91218.9
91080
91077.4
90856.4
90858
90536.3
90548.7
90100
90132
89522.4
89580.6
88766.6
90516.1
91077.2
90986.8
91411.3
91357.4
91669.9
91640.3
91864
91849.2
92001.7
91995.7
92089.6
92088.7
92131.6
92134.4
92129.7
92135.8
92082.9
92093.7
91987.9
92006.1
91838.1
91868.8
91624.4
91675.1
91334.5
91416.6
90954.4
91079.4
90465.2
91586.1
91891.8
91734.5
91947.7
91849.9
92005.8
91945.7
92060.6
92024.8
92106.1
92086.3
92137.5
92129.2
92151.8
92152.7
92147.1
92157.1
92122.5
92143.2
92077.6
92113.1
92012.9
92070
91929.1
92018.7
91826.3
91965.4
91700.8
91913.6
91536.6
93672
93662.9
93494.5
93460.3
93348.7
93324.5
93243.3
93230.4
93171.7
93166
93126.9
93124.2
93103.3
93100.6
93097.3
93092.7
93107.2
93100
93133.7
93124.2
93179.2
93168.6
93248.9
93238.6
93350.5
93340.2
93496.7
93478.5
93714.1
93649
94985.7
94257.1
94142.7
93739.9
93651.5
93436.9
93370
93254.4
93205.9
93144.2
93112.3
93080
93063.4
93047.7
93045.8
93040.9
93053.9
93059.2
93088.3
93108.3
93155.9
93201.9
93271.6
93365.9
93462.7
93647.2
93779
94137.4
94327.1
95009.9
96845.5
95876.2
95706.8
95145.1
94986.3
94647.8
94519.5
94310
94215.6
94087
94023.8
93949
93914.2
93878.7
93870.2
93867.5
93884.9
93914.9
93959.2
94028.3
94101.8
94224.7
94330.7
94535
94675.2
95010.9
95179.1
95745.5
95920.1
96937.3
94007.4
94027.6
94001.3
93950.8
93919
93853
93820.4
93761.3
93732.9
93687.7
93666.7
93636.4
93624.6
93608.4
93606.5
93603.5
93612
93621.9
93640.8
93664.1
93692.8
93730.1
93767.1
93817
93858.7
93913.7
93953.9
93993
94025.9
93997.6
95108.6
95016
94960.2
94822.4
94755.8
94628.4
94566.1
94463.7
94412.1
94337.1
94299.6
94250.7
94228.8
94204.2
94198.6
94197
94208
94229.5
94256.8
94302.6
94345.7
94417.5
94474.6
94574.3
94641.3
94766.5
94835.8
94972.7
95029.8
95124.7
94068.2
94066.3
94060.6
94044.3
94036.2
94012.4
94002.5
93977.6
93967.6
93945.8
93937.7
93921.5
93916.7
93907.5
93906.9
93905.2
93909.2
93914.9
93923.2
93935.8
93947.5
93965.7
93979.1
94000.4
94013.2
94033.5
94043.9
94057.4
94064.6
94065.4
94586.4
94575.2
94559.1
94528
94505.1
94466.8
94442.7
94405.6
94384
94353.1
94336.4
94314.4
94304.4
94292.7
94290.1
94289.2
94294.5
94304.4
94317.2
94337.4
94356.8
94386
94410.2
94445.8
94472
94509
94533.1
94563.2
94579.9
94590.8
94130.1
94129.1
94126.5
94120.7
94117.2
94108.3
94104.3
94094.4
94090.4
94081.2
94078
94070.8
94068.9
94064.6
94064.4
94063.5
94065.2
94067.7
94071.2
94076.7
94081.5
94089.2
94094.6
94103.2
94108.4
94116.2
94120.6
94125.6
94128.8
94129.6
94394.1
94391.9
94387
94378.9
94371.4
94359.8
94351.4
94339
94331.1
94319.9
94313.5
94305
94301.1
94296.4
94295.5
94294.9
94297.1
94300.8
94306
94313.5
94321.1
94331.5
94340.6
94352.4
94361.7
94372.7
94380.8
94388.5
94393.7
94395.7
94173.1
94172.8
94171.7
94169.7
94168.2
94164.9
94163.2
94159.4
94157.8
94154.1
94152.8
94149.9
94149.1
94147.2
94147.2
94146.7
94147.5
94148.4
94149.9
94152
94154.1
94157
94159.4
94162.6
94165
94167.8
94169.8
94171.6
94173
94173.3
94312.8
94312.3
94310.7
94308.3
94305.9
94302.3
94299.5
94295.4
94292.7
94288.8
94286.6
94283.6
94282.2
94280.4
94280.1
94279.8
94280.7
94281.9
94283.8
94286.4
94289.2
94292.6
94295.9
94299.6
94302.9
94306.3
94309
94311.2
94313
94313.5
94200.4
94200.3
94199.9
94199.2
94198.6
94197.5
94196.8
94195.5
94194.8
94193.5
94193
94191.8
94191.6
94190.8
94190.8
94190.6
94190.9
94191.2
94191.8
94192.5
94193.4
94194.4
94195.4
94196.6
94197.5
94198.5
94199.4
94199.9
94200.5
94200.6
94275.7
94275.6
94275
94274.3
94273.5
94272.4
94271.5
94270.2
94269.3
94268
94267.3
94266.3
94265.9
94265.2
94265.2
94265
94265.4
94265.7
94266.4
94267.2
94268.2
94269.2
94270.3
94271.5
94272.6
94273.6
94274.5
94275.2
94275.7
94275.9
94216.8
94216.8
94216.6
94216.4
94216.2
94215.8
94215.6
94215.1
94214.9
94214.5
94214.3
94214
94213.9
94213.6
94213.7
94213.6
94213.7
94213.8
94214.1
94214.3
94214.6
94214.9
94215.2
94215.5
94215.9
94216.1
94216.4
94216.6
94216.8
94216.8
94257.7
94257.6
94257.5
94257.2
94257
94256.6
94256.3
94255.9
94255.7
94255.3
94255.1
94254.8
94254.7
94254.6
94254.6
94254.6
94254.7
94254.8
94255
94255.2
94255.5
94255.8
94256.1
94256.4
94256.7
94256.9
94257.2
94257.3
94257.5
94257.5
94226.1
94226.1
94226.1
94226
94225.9
94225.8
94225.8
94225.6
94225.6
94225.5
94225.5
94225.4
94225.4
94225.4
94225.5
94225.5
94225.5
94225.6
94225.7
94225.7
94225.8
94225.8
94225.9
94225.9
94225.9
94225.9
94225.9
94225.9
94225.9
94225.9
94248.5
94248.5
94248.4
94248.4
94248.3
94248.2
94248.1
94248
94247.9
94247.8
94247.8
94247.7
94247.8
94247.8
94247.9
94247.9
94248
94248
94248.1
94248.1
94248.2
94248.2
94248.2
94248.2
94248.2
94248.2
94248.2
94248.2
94248.2
94248.1
94231.4
94231.4
94231.4
94231.4
94231.4
94231.3
94231.3
94231.3
94231.3
94231.3
94231.3
94231.3
94231.4
94231.4
94231.5
94231.6
94231.6
94231.7
94231.7
94231.7
94231.7
94231.6
94231.6
94231.5
94231.4
94231.3
94231.2
94231.2
94231.1
94231.1
94243.9
94243.9
94243.9
94243.9
94243.8
94243.8
94243.8
94243.7
94243.7
94243.7
94243.7
94243.8
94243.8
94243.9
94244
94244
94244.1
94244.1
94244.2
94244.1
94244.1
94244.1
94244
94243.9
94243.9
94243.8
94243.7
94243.6
94243.6
94243.5
94234.5
94234.5
94234.5
94234.5
94234.5
94234.5
94234.5
94234.5
94234.5
94234.5
94234.5
94234.6
94234.6
94234.7
94234.8
94234.8
94234.9
94234.9
94234.9
94234.9
94234.9
94234.8
94234.8
94234.6
94234.6
94234.4
94234.4
94234.3
94234.2
94234.2
94241.7
94241.7
94241.7
94241.7
94241.7
94241.6
94241.6
94241.6
94241.6
94241.6
94241.7
94241.7
94241.7
94241.8
94241.8
94241.9
94241.9
94242
94242
94242
94241.9
94241.9
94241.8
94241.7
94241.7
94241.6
94241.5
94241.4
94241.4
94241.4
94236.2
94236.2
94236.2
94236.2
94236.2
94236.2
94236.2
94236.2
94236.2
94236.2
94236.2
94236.3
94236.3
94236.3
94236.4
94236.4
94236.5
94236.5
94236.5
94236.5
94236.5
94236.4
94236.4
94236.3
94236.2
94236.1
94236.1
94236
94236
94236
94240.5
94240.5
94240.5
94240.5
94240.5
94240.5
94240.5
94240.4
94240.5
94240.5
94240.5
94240.5
94240.5
94240.5
94240.6
94240.6
94240.6
94240.6
94240.6
94240.6
94240.6
94240.6
94240.6
94240.5
94240.5
94240.4
94240.4
94240.3
94240.3
94240.3
94236.9
94236.9
94236.9
94236.9
94236.9
94236.9
94236.9
94236.9
94236.9
94236.9
94236.9
94237
94237
94237
94237
94237
94237
94237
94237
94237
94237
94237
94237
94237
94236.9
94236.9
94236.9
94236.9
94236.9
94236.8
94239.9
94239.9
94239.9
94239.9
94239.9
94239.9
94239.9
94239.9
94239.9
94239.9
94239.9
94239.9
94239.9
94239.9
94239.9
94239.9
94239.9
94239.9
94239.9
94239.9
94239.9
94239.9
94239.9
94239.9
94239.9
94239.9
94239.9
94239.8
94239.8
94239.8
94237.3
94237.3
94237.3
94237.3
94237.3
94237.3
94237.3
94237.3
94237.3
94237.3
94237.3
94237.3
94237.3
94237.3
94237.3
94237.3
94237.3
94237.3
94237.3
94237.3
94237.3
94237.3
94237.3
94237.3
94237.3
94237.3
94237.3
94237.3
94237.3
94237.3
SCALARS density float 1
LOOKUP_TABLE default
1.21227
1.21227
1.21227
1.21227
1.21227
1.21227
1.21227
1.21227
1.21227
1.21226
1.21226
1.21226
1.21226
1.21226
1.21226
1.21226
1.21226
1.21226
1.21226
1.21226
1.21227
1.21227
1.21227
1.21227
1.21227
1.21227
1.21227
1.21227
1.21227
1.21227
1.21245
1.21245
1.21245
1.21245
1.21245
1.21245
1.21245
1.21245
1.21245
1.21245
1.21245
1.21245
1.21245
1.21245
1.21245
1.21245
1.21245
1.21245
1.21245
1.21245
1.21245
1.21245
1.21245
1.21245
1.21245
1.21245
1.21245
1.21245
1.21245
1.21245
1.21236
1.21236
1.21236
1.21236
1.21236
1.21236
1.21236
1.21236
1.21236
1.21236
1.21236
1.21236
1.21236
1.21236
1.21236
1.21236
1.21236
1.21236
1.21236
1.21236
1.21236
1.21236
1.21236
1.21236
1.21236
1.21236
1.21236
1.21236
1.21236
1.21236
1.21235
1.21235
1.21235
1.21235
1.21235
1.21235
1.21235
1.21235
1.21235
1.21235
1.21235
1.21235
1.21235
1.21235
1.21235
1.21235
1.21235
1.21235
1.21235
1.21235
1.21235
1.21235
1.21235
1.21235
1.21235
1.21235
1.21235
1.21235
1.21235
1.21235
1.21244
1.21244
1.21244
1.21245
1.21245
1.21245
1.21245
1.21245
1.21245
1.21245
1.21245
1.21245
1.21245
1.21245
1.21245
1.21245
1.21244
1.21244
1.21244
1.21244
1.21244
1.21244
1.21244
1.21244
1.21245
1.21245
1.21245
1.21245
1.21245
1.21245
1.21227
1.21227
1.21227
1.21227
1.21227
1.21227
1.21227
1.21227
1.21227
1.21227
1.21227
1.21227
1.21227
1.21227
1.21227
1.21227
1.21227
1.21227
1.21227
1.21227
1.21227
1.21227
1.21227
1.21227
1.21227
1.21227
1.21227
1.21227
1.21227
1.21227
1.21251
1.21251
1.21251
1.21252
1.21252
1.21252
1.21252
1.21252
1.21252
1.21253
1.21253
1.21253
1.21253
1.21253
1.21253
1.21253
1.21252
1.21252
1.21252
1.21252
1.21252
1.21252
1.21252
1.21252
1.21252
1.21252
1.21252
1.21252
1.21252
1.21252
1.21218
1.21218
1.21218
1.21218
1.21219
1.21219
1.21219
1.21219
1.2122
1.2122
1.2122
1.2122
1.2122
1.2122
1.2122
1.2122
1.2122
1.2122
1.21219
1.21219
1.21219
1.21219
1.21219
1.21219
1.21219
1.21219
1.21219
1.21219
1.21219
1.21219
1.21259
1.21259
1.21259
1.2126
1.2126
1.2126
1.2126
1.21261
1.21261
1.21261
1.21261
1.21261
1.21262
1.21262
1.21261
1.21261
1.21261
1.21261
1.21261
1.21261
1.2126
1.2126
1.2126
1.2126
1.2126
1.2126
1.2126
1.2126
1.2126
1.2126
1.21209
1.21209
1.21209
1.21209
1.2121
1.2121
1.2121
1.21211
1.21211
1.21211
1.21211
1.21211
1.21211
1.21211
1.21211
1.21211
1.21211
1.21211
1.21211
1.21211
1.2121
1.2121
1.2121
1.2121
1.2121
1.21209
1.21209
1.21209
1.21209
1.21209
1.21269
1.21269
1.21269
1.2127
1.2127
1.2127
1.21271
1.21271
1.21271
1.21271
1.21272
1.21272
1.21272
1.21272
1.21272
1.21272
1.21272
1.21271
1.21271
1.21271
1.21271
1.21271
1.2127
1.2127
1.2127
1.2127
1.2127
1.2127
1.2127
1.2127
1.21198
1.21198
1.21198
1.21198
1.21198
1.21199
1.21199
1.21199
1.21199
1.21199
1.212
1.212
1.212
1.212
1.212
1.21199
1.21199
1.21199
1.21199
1.21199
1.21199
1.21199
1.21198
1.21198
1.21198
1.21198
1.21198
1.21198
1.21198
1.21198
1.21284
1.21284
1.21284
1.21284
1.21284
1.21284
1.21284
1.21284
1.21284
1.21284
1.21284
1.21284
1.21284
1.21284
1.21284
1.21284
1.21284
1.21283
1.21283
1.21283
1.21283
1.21283
1.21283
1.21283
1.21283
1.21284
1.21284
1.21284
1.21284
1.21284
1.21186
1.21185
1.21185
1.21185
1.21185
1.21184
1.21184
1.21184
1.21183
1.21183
1.21183
1.21182
1.21182
1.21182
1.21182
1.21182
1.21182
1.21182
1.21182
1.21182
1.21182
1.21183
1.21183
1.21184
1.21184
1.21184
1.21184
1.21185
1.21185
1.21185
1.21306
1.21306
1.21306
1.21305
1.21304
1.21303
1.21302
1.21301
1.213
1.21299
1.21299
1.21298
1.21297
1.21297
1.21297
1.21297
1.21297
1.21297
1.21298
1.21298
1.21299
1.213
1.21301
1.21302
1.21303
1.21304
1.21304
1.21305
1.21305
1.21306
1.21174
1.21173
1.21172
1.21171
1.21169
1.21167
1.21165
1.21163
1.21161
1.21159
1.21157
1.21156
1.21155
1.21154
1.21154
1.21153
1.21154
1.21155
1.21156
1.21157
1.21159
1.21161
1.21162
1.21165
1.21166
1.21168
1.21169
1.21171
1.21171
1.21172
1.21344
1.21343
1.21342
1.21339
1.21336
1.21332
1.21329
1.21325
1.21321
1.21318
1.21315
1.21312
1.2131
1.21308
1.21308
1.21308
1.21308
1.2131
1.21312
1.21315
1.21317
1.21321
1.21324
1.21328
1.21331
1.21335
1.21337
1.2134
1.21341
1.21343
1.21171
1.21168
1.21166
1.21159
1.21156
1.21147
1.21142
1.21134
1.21129
1.21121
1.21117
1.21112
1.21109
1.21106
1.21105
1.21105
1.21106
1.21109
1.21111
1.21117
1.21121
1.21128
1.21133
1.21141
1.21146
1.21154
1.21157
1.21164
1.21165
1.21168
1.21416
1.21411
1.21408
1.21397
1.2139
1.21377
1.21367
1.21354
1.21344
1.21333
1.21325
1.21316
1.21311
1.21307
1.21305
1.21305
1.21307
1.21311
1.21316
1.21325
1.21332
1.21344
1.21353
1.21366
1.21375
1.21388
1.21395
1.21405
1.21408
1.21414
1.21208
1.21196
1.2119
1.21167
1.21155
1.21129
1.21115
1.21089
1.21075
1.21055
1.21043
1.21029
1.21021
1.21014
1.21011
1.21011
1.21014
1.21021
1.21028
1.21042
1.21054
1.21074
1.21087
1.21112
1.21126
1.21152
1.21163
1.21186
1.21192
1.21204
1.21576
1.21554
1.21543
1.21506
1.21484
1.21442
1.21416
1.21378
1.21354
1.21322
1.21303
1.21282
1.2127
1.21259
1.21255
1.21255
1.21258
1.2127
1.21281
1.21303
1.21321
1.21352
1.21375
1.21414
1.21439
1.21481
1.21501
1.2154
1.21549
1.21572
1.21422
1.21346
1.21326
1.21227
1.21194
1.21104
1.21068
1.20997
1.20964
1.20912
1.20887
1.20853
1.20838
1.20821
1.20816
1.20816
1.20821
1.20837
1.20852
1.20885
1.2091
1.20961
1.20994
1.21064
1.211
1.21188
1.21221
1.2132
1.21339
1.21415
1.2202
1.21865
1.21831
1.21679
1.21619
1.21491
1.2143
1.21331
1.21281
1.21211
1.21174
1.21129
1.21108
1.21086
1.21078
1.21078
1.21085
1.21107
1.21128
1.21173
1.21208
1.21279
1.21327
1.21427
1.21485
1.21616
1.21672
1.21827
1.21856
1.22015
1.2252
1.21807
1.2172
1.21288
1.21191
1.20935
1.20853
1.20699
1.20639
1.20547
1.20507
1.20455
1.20432
1.20409
1.20401
1.20401
1.20408
1.20432
1.20454
1.20505
1.20545
1.20636
1.20696
1.20848
1.20929
1.21182
1.21278
1.21708
1.21793
1.22505
1.23062
1.22323
1.22032
1.21611
1.21461
1.21202
1.21108
1.20948
1.20885
1.20787
1.20746
1.2069
1.20667
1.20641
1.20633
1.20633
1.2064
1.20666
1.20688
1.20746
1.20784