# vtk DataFile Version 3.0
Structured Grid Example
ASCII
DATASET STRUCTURED_GRID
DIMENSIONS 15 30 1
POINTS 450 FLOAT
0.0833327 0.0333334 0
0.0833313 0.1 0
0.0833301 0.166667 0
0.083329 0.233333 0
0.0833281 0.3 0
0.0833274 0.366667 0
0.083327 0.433333 0
0.0833268 0.5 0
0.083327 0.566667 0
0.0833274 0.633333 0
0.0833281 0.7 0
0.083329 0.766667 0
0.0833301 0.833333 0
0.0833313 0.9 0
0.0833327 0.966667 0
0.249998 0.0333334 0
0.249993 0.1 0
0.249989 0.166667 0
0.249986 0.233334 0
0.249983 0.3 0
0.24998 0.366667 0
0.249979 0.433333 0
0.249979 0.5 0
0.249979 0.566667 0
0.24998 0.633333 0
0.249983 0.7 0
0.249986 0.766666 0
0.249989 0.833333 0
0.249993 0.9 0
0.249998 0.966667 0
0.416662 0.0333336 0
0.416654 0.100001 0
0.416646 0.166668 0
0.416639 0.233334 0
0.416633 0.300001 0
0.416628 0.366667 0
0.416626 0.433334 0
0.416625 0.5 0
0.416626 0.566666 0
0.416628 0.633333 0
0.416633 0.699999 0
0.416639 0.766666 0
0.416646 0.833332 0
0.416654 0.899999 0
0.416662 0.966666 0
0.583326 0.033334 0
0.58331 0.100002 0
0.583296 0.166669 0
0.583284 0.233336 0
0.583273 0.300003 0
0.583266 0.366669 0
0.583261 0.433335 0
0.583259 0.5 0
0.583261 0.566665 0
0.583266 0.633331 0
0.583273 0.699997 0
0.583284 0.766664 0
0.583296 0.833331 0
0.58331 0.899998 0
0.583326 0.966666 0
0.749987 0.0333351 0
0.749961 0.100005 0
0.749937 0.166674 0
0.749915 0.233342 0
0.749898 0.300008 0
0.749884 0.366673 0
0.749876 0.433337 0
0.749874 0.5 0
0.749876 0.566663 0
0.749884 0.633327 0
0.749898 0.699992 0
0.749915 0.766658 0
0.749937 0.833326 0
0.749961 0.899995 0
0.749987 0.966665 0
0.916644 0.033338 0
0.916601 0.100013 0
0.91656 0.166686 0
0.916524 0.233356 0
0.916494 0.300021 0
0.916472 0.366683 0
0.916458 0.433342 0
0.916454 0.5 0
0.916458 0.566658 0
0.916472 0.633317 0
0.916494 0.699979 0
0.916524 0.766644 0
0.91656 0.833314 0
0.916601 0.899987 0
0.916644 0.966662 0
1.0833 0.0333461 0
1.08322 0.100036 0
1.08315 0.166719 0
1.08309 0.233394 0
1.08304 0.300058 0
1.08301 0.366712 0
1.08298 0.433358 0
1.08298 0.5 0
1.08298 0.566642 0
1.08301 0.633288 0
1.08304 0.699942 0
1.08309 0.766606 0
1.08315 0.833281 0
1.08322 0.899964 0
1.0833 0.966654 0
1.24994 0.0333682 0
1.24981 0.100098 0
1.2497 0.16681 0
1.24959 0.233497 0
1.24951 0.300156 0
1.24945 0.366788 0
1.24942 0.433399 0
1.2494 0.5 0
1.24942 0.566601 0
1.24945 0.633212 0
1.24951 0.699844 0
1.24959 0.766503 0
1.2497 0.83319 0
1.24981 0.899902 0
1.24994 0.966632 0
1.41656 0.0334298 0
1.41634 0.10027 0
1.41615 0.16706 0
1.41598 0.233778 0
1.41585 0.300419 0
1.41575 0.36699 0
1.41569 0.433509 0
1.41567 0.5 0
1.41569 0.566491 0
1.41575 0.63301 0
1.41585 0.699581 0
1.41598 0.766222 0
1.41615 0.83294 0
1.41634 0.89973 0
1.41656 0.96657 0
1.58313 0.0336075 0
1.58275 0.10076 0
1.58242 0.167751 0
1.58215 0.234537 0
1.58195 0.301115 0
1.58181 0.367517 0
1.58173 0.433791 0
1.58171 0.5 0
1.58173 0.566209 0
1.58181 0.632483 0
1.58195 0.698885 0
1.58215 0.765463 0
1.58242 0.832249 0
1.58275 0.89924 0
1.58313 0.966392 0
1.74959 0.0341677 0
1.74885 0.102235 0
1.74829 0.169714 0
1.74791 0.236575 0
1.74766 0.302905 0
1.74751 0.368829 0
1.74744 0.434482 0
1.74741 0.5 0
1.74744 0.565518 0
1.74751 0.631171 0
1.74766 0.697095 0
1.74791 0.763425 0
1.74829 0.830286 0
1.74885 0.897765 0
1.74959 0.965832 0
1.91555 0.0363295 0
1.91388 0.107253 0
1.91312 0.175401 0
1.91283 0.241837 0
1.91276 0.307169 0
1.91277 0.371793 0
1.9128 0.435995 0
1.91281 0.5 0
1.9128 0.564005 0
1.91277 0.628207 0
1.91276 0.692831 0
1.91283 0.758163 0
1.91312 0.824599 0
1.91388 0.892747 0
1.91555 0.963671 0
2.07838 0.0591504 0
2.07417 0.125973 0
2.07554 0.190391 0
2.07663 0.253364 0
2.07743 0.315525 0
2.07798 0.377223 0
2.07829 0.438667 0
2.0784 0.5 0
2.07829 0.561333 0
2.07798 0.622777 0
2.07743 0.684475 0
2.07663 0.746636 0
2.07554 0.809609 0
2.07417 0.874027 0
2.07838 0.94085 0
2.24384 0.096456 0
2.23911 0.153168 0
2.24152 0.210396 0
2.24318 0.267878 0
2.24431 0.325632 0
2.24503 0.383617 0
2.24544 0.441767 0
2.24557 0.5 0
2.24544 0.558233 0
2.24503 0.616383 0
2.24431 0.674368 0
2.24318 0.732122 0
2.24152 0.789604 0
2.23911 0.846832 0
2.24384 0.903544 0
2.41462 0.118677 0
2.41292 0.170231 0
2.41356 0.223198 0
2.41406 0.277268 0
2.41444 0.332207 0
2.4147 0.387788 0
2.41485 0.44379 0
2.4149 0.5 0
2.41485 0.55621 0
2.4147 0.612212 0
2.41444 0.667793 0
2.41406 0.722732 0
2.41356 0.776802 0
2.41292 0.829769 0
2.41462 0.881323 0
2.58538 0.118677 0
2.58708 0.170231 0
2.58644 0.223198 0
2.58594 0.277268 0
2.58556 0.332207 0
2.5853 0.387788 0
2.58515 0.44379 0
2.5851 0.5 0
2.58515 0.55621 0
2.5853 0.612212 0
2.58556 0.667793 0
2.58594 0.722732 0
2.58644 0.776802 0
2.58708 0.829769 0
2.58538 0.881323 0
2.75616 0.096456 0
2.76089 0.153168 0
2.75848 0.210396 0
2.75682 0.267878 0
2.75569 0.325632 0
2.75497 0.383617 0
2.75456 0.441767 0
2.75443 0.5 0
2.75456 0.558233 0
2.75497 0.616383 0
2.75569 0.674368 0
2.75682 0.732122 0
2.75848 0.789604 0
2.76089 0.846832 0
2.75616 0.903544 0
2.92162 0.0591504 0
2.92583 0.125973 0
2.92446 0.190391 0
2.92337 0.253364 0
2.92257 0.315525 0
2.92202 0.377223 0
2.92171 0.438667 0
2.9216 0.5 0
2.92171 0.561333 0
2.92202 0.622777 0
2.92257 0.684475 0
2.92337 0.746636 0
2.92446 0.809609 0
2.92583 0.874027 0
2.92162 0.94085 0
3.08445 0.0363295 0
3.08612 0.107253 0
3.08688 0.175401 0
3.08717 0.241837 0
3.08724 0.307169 0
3.08723 0.371793 0
3.0872 0.435995 0
3.08719 0.5 0
3.0872 0.564005 0
3.08723 0.628207 0
3.08724 0.692831 0
3.08717 0.758163 0
3.08688 0.824599 0
3.08612 0.892747 0
3.08445 0.963671 0
3.25041 0.0341677 0
3.25115 0.102235 0
3.25171 0.169714 0
3.25209 0.236575 0
3.25234 0.302905 0
3.25249 0.368829 0
3.25256 0.434482 0
3.25259 0.5 0
3.25256 0.565518 0
3.25249 0.631171 0
3.25234 0.697095 0
3.25209 0.763425 0
3.25171 0.830286 0
3.25115 0.897765 0
3.25041 0.965832 0
3.41687 0.0336075 0
3.41725 0.10076 0
3.41758 0.167751 0
3.41785 0.234537 0
3.41805 0.301115 0
3.41819 0.367517 0
3.41827 0.433791 0
3.41829 0.5 0
3.41827 0.566209 0
3.41819 0.632483 0
3.41805 0.698885 0
3.41785 0.765463 0
3.41758 0.832249 0
3.41725 0.89924 0
3.41687 0.966392 0
3.58344 0.0334298 0
3.58366 0.10027 0
3.58385 0.16706 0
3.58402 0.233778 0
3.58415 0.300419 0
3.58425 0.36699 0
3.58431 0.433509 0
3.58433 0.5 0
3.58431 0.566491 0
3.58425 0.63301 0
3.58415 0.699581 0
3.58402 0.766222 0
3.58385 0.83294 0
3.58366 0.89973 0
3.58344 0.96657 0
3.75006 0.0333682 0
3.75019 0.100098 0
3.7503 0.16681 0
3.75041 0.233497 0
3.75049 0.300156 0
3.75055 0.366788 0
3.75058 0.433399 0
3.7506 0.5 0
3.75058 0.566601 0
3.75055 0.633212 0
3.75049 0.699844 0
3.75041 0.766503 0
3.7503 0.83319 0
3.75019 0.899902 0
3.75006 0.966632 0
3.9167 0.0333461 0
3.91678 0.100036 0
3.91685 0.166719 0
3.91691 0.233394 0
3.91696 0.300058 0
3.91699 0.366712 0
3.91702 0.433358 0
3.91702 0.5 0
3.91702 0.566642 0
3.91699 0.633288 0
3.91696 0.699942 0
3.91691 0.766606 0
3.91685 0.833281 0
3.91678 0.899964 0
3.9167 0.966654 0
4.08336 0.033338 0
4.0834 0.100013 0
4.08344 0.166686 0
4.08348 0.233356 0
4.08351 0.300021 0
4.08353 0.366683 0
4.08354 0.433342 0
4.08355 0.5 0
4.08354 0.566658 0
4.08353 0.633317 0
4.08351 0.699979 0
4.08348 0.766644 0
4.08344 0.833314 0
4.0834 0.899987 0
4.08336 0.966662 0
4.25001 0.0333351 0
4.25004 0.100005 0
4.25006 0.166674 0
4.25008 0.233342 0
4.2501 0.300008 0
4.25012 0.366673 0
4.25012 0.433337 0
4.25013 0.5 0
4.25012 0.566663 0
4.25012 0.633327 0
4.2501 0.699992 0
4.25008 0.766658 0
4.25006 0.833326 0
4.25004 0.899995 0
4.25001 0.966665 0
4.41667 0.033334 0
4.41669 0.100002 0
4.4167 0.166669 0
4.41672 0.233336 0
4.41673 0.300003 0
4.41673 0.366669 0
4.41674 0.433335 0
4.41674 0.5 0
4.41674 0.566665 0
4.41673 0.633331 0
4.41673 0.699997 0
4.41672 0.766664 0
4.4167 0.833331 0
4.41669 0.899998 0
4.41667 0.966666 0
4.58334 0.0333336 0
4.58335 0.100001 0
4.58335 0.166668 0
4.58336 0.233334 0
4.58337 0.300001 0
4.58337 0.366667 0
4.58337 0.433334 0
4.58338 0.5 0
4.58337 0.566666 0
4.58337 0.633333 0
4.58337 0.699999 0
4.58336 0.766666 0
4.58335 0.833332 0
4.58335 0.899999 0
4.58334 0.966666 0
4.75 0.0333334 0
4.75001 0.1 0
4.75001 0.166667 0
4.75001 0.233334 0
4.75002 0.3 0
4.75002 0.366667 0
4.75002 0.433333 0
4.75002 0.5 0
4.75002 0.566667 0
4.75002 0.633333 0
4.75002 0.7 0
4.75001 0.766666 0
4.75001 0.833333 0
4.75001 0.9 0
4.75 0.966667 0
4.91667 0.0333334 0
4.91667 0.1 0
4.91667 0.166667 0
4.91667 0.233333 0
4.91667 0.3 0
4.91667 0.366667 0
4.91667 0.433333 0
4.91667 0.5 0
4.91667 0.566667 0
4.91667 0.633333 0
4.91667 0.7 0
4.91667 0.766667 0
4.91667 0.833333 0
4.91667 0.9 0
4.91667 0.966667 0
POINT_DATA 450
SCALARS pressure float 1
LOOKUP_TABLE default
94472.7
94472.7
94472.7
94472.7
94472.7
94472.7
94472.7
94472.7
94472.6
94472.7
94472.7
94472.7
94472.7
94472.7
94472.7
94233
94232.9
94233
94232.8
94232.9
94232.7
94232.8
94232.7
94232.8
94232.7
94232.8
94232.8
94232.9
94232.8
94232.9
94531.4
94531.4
94531.3
94531.3
94531.3
94531.2
94531.2
94531.2
94531.2
94531.2
94531.2
94531.2
94531.3
94531.3
94531.3
94167.9
94167.7
94167.8
94167.2
94167.5
94166.8
94167.2
94166.6
94167.2
94166.7
94167.3
94167
94167.6
94167.4
94167.7
94605.1
94605
94604.9
94604.5
94604.4
94604
94604
94603.7
94604
94603.9
94604.3
94604.4
94604.8
94604.8
94605
94086.5
94085.3
94085.5
94082.9
94083.6
94080.7
94082.1
94079.6
94082
94080.4
94083.2
94082.4
94084.9
94084.6
94085.8
94705.3
94704
94703.4
94700.5
94699.9
94697
94697.3
94695.4
94697.3
94696.8
94699.7
94700.1
94703
94703.6
94704.9
93989.8
93982.3
93982.2
93968.6
93969.6
93956.2
93960.7
93951.2
93960.3
93955.5
93968.5
93967.1
93980.5
93980.5
93987.8
94864.9
94852.4
94847.4
94828.3
94823.3
94806.9
94807.6
94798.4
94807.4
94806.2
94822.7
94827.1
94846.4
94851
94863.7
93946
93882.1
93876.4
93799.1
93794.8
93736.3
93745.8
93713
93744.7
93734.4
93791.7
93795.4
93871.5
93876.8
93940.5
95275.7
95127
95087.6
94970.9
94938.1
94863.4
94859.5
94825.5
94859
94861.2
94936.8
94966.8
95085.6
95121.8
95273
94579.6
93841.3
93801.7
93398.4
93349.5
93157.8
93151.2
93082.1
93148.8
93154.2
93342.1
93390.2
93788.7
93826.6
94560.5
96090.1
95429.4
95023.8
94717.1
94575.6
94435.8
94399
94356.1
94398.4
94429.9
94574.3
94703.6
95023.3
95404.2
96090.6
89234.1
90315.4
89940.2
90624.6
90430.9
90854.3
90671.5
90935.8
90671.2
90858.9
90430.1
90636.7
89939.2
90342.3
89225.7
90134.9
91441.9
91331.3
92149.8
91990.6
92508.1
92282.9
92617.8
92279.5
92511.2
91980
92157.2
91312.2
91456
90098.3
87535.8
88994.7
88787.5
89754.2
89528.3
90169.5
89870.3
90300.4
89863.3
90165.7
89506
89743.5
88746.4
88968.6
87459.6
91730.9
92476.4
92249
92788.2
92572.4
92971.5
92723.4
93031.7
92717.9
92974.8
92554.3
92793.8
92213.3
92479.8
91668
93294.2
92796.9
92665.1
92494.7
92372.6
92378.4
92261.3
92352.5
92258.3
92395.2
92363.5
92532.9
92646.7
92869.7
93288.1
96851
95806.7
95620.9
95127.4
94984.8
94779.4
94713.5
94676.1
94720.2
94792.4
95007.3
95153.9
95665.7
95846.6
96954
93086.6
93171.3
93147.6
93179.7
93149.8
93172.3
93140.4
93168.4
93139.5
93173.9
93146.7
93181.1
93141.4
93169
93077.5
95063.5
94984.5
94944.2
94853.6
94817
94759
94745.6
94727.1
94747.9
94763.4
94823.7
94861.4
94954.2
94994.2
95075.9
93600.4
93603.6
93601.7
93603.8
93600.1
93602.8
93598.2
93602.3
93598.1
93603
93599.8
93604.1
93601.2
93603.7
93600.5
94580.8
94574.2
94567.4
94554.4
94547.5
94536.7
94534.4
94530.2
94534.9
94537.7
94548.9
94556
94569.1
94575.9
94582.5
93843.3
93843.4
93843.3
93843.1
93842.8
93842.7
93842.3
93842.5
93842.4
93842.9
93843
93843.5
93843.7
93844
93844
94387.3
94386.5
94385.3
94383.3
94382.1
94380.3
94380
94379.1
94380
94380.4
94382.3
94383.5
94385.4
94386.5
94387.3
93969
93969
93969.2
93969.1
93969.2
93969.1
93969.2
93969.2
93969.3
93969.3
93969.4
93969.4
93969.5
93969.5
93969.5
94295.5
94295.3
94295.1
94294.7
94294.5
94294.1
94294
94293.8
94294
94294.1
94294.4
94294.6
94295
94295.1
94295.3
94031.3
94031.3
94031.5
94031.5
94031.6
94031.6
94031.7
94031.7
94031.8
94031.8
94031.8
94031.8
94031.8
94031.7
94031.7
94253.6
94253.6
94253.5
94253.4
94253.4
94253.3
94253.3
94253.2
94253.2
94253.2
94253.3
94253.4
94253.4
94253.5
94253.5
94056.8
94057
94057.2
94057.4
94057.6
94057.7
94057.8
94057.8
94057.9
94057.8
94057.8
94057.7
94057.7
94057.5
94057.4
SCALARS density float 1
LOOKUP_TABLE default
1.21435
1.21435
1.21435
1.21435
1.21435
1.21435
1.21435
1.21435
1.21435
1.21435
1.21435
1.21435
1.21435
1.21435
1.21435
1.21213
1.21213
1.21213
1.21213
1.21214
1.21213
1.21214
1.21213
1.21214
1.21213
1.21214
1.21213
1.21213
1.21213
1.21213
1.21487
1.21487
1.21487
1.21487
1.21487
1.21487
1.21487
1.21487
1.21487
1.21487
1.21487
1.21487
1.21487
1.21487
1.21487
1.21154
1.21154
1.21154
1.21153
1.21154
1.21153
1.21154
1.21153
1.21154
1.21153
1.21154
1.21153
1.21154
1.21153
1.21154
1.21555
1.21555
1.21555
1.21555
1.21555
1.21554
1.21554
1.21554
1.21554
1.21554
1.21555
1.21555
1.21555
1.21555
1.21555
1.2108
1.21079
1.21079
1.21077
1.21078
1.21075
1.21077
1.21074
1.21076
1.21075
1.21077
1.21077
1.21079
1.21078
1.21079
1.21647
1.21645
1.21645
1.21642
1.21641
1.21639
1.21639
1.21637
1.21639
1.21639
1.21641
1.21642
1.21644
1.21645
1.21646
1.20994
1.20988
1.20989
1.20976
1.20978
1.20966
1.2097
1.20961
1.2097
1.20965
1.20977
1.20975
1.20987
1.20987
1.20993
1.21784
1.21773
1.21769
1.21752
1.21748
1.21733
1.21733
1.21725
1.21733
1.21732
1.21747
1.21751
1.21768
1.21772
1.21784
1.20983
1.20925
1.20917
1.20843
1.20838
1.20783
1.20792
1.20761
1.20791
1.20782
1.20835
1.2084
1.20912
1.20921
1.20978
1.22075
1.21958
1.21936
1.21842
1.21819
1.21755
1.21753
1.21723
1.21753
1.21753
1.21818
1.21839
1.21934
1.21953
1.22074
1.21829
1.21059
1.20975
1.20563
1.20498
1.20304
1.20292
1.20224
1.2029
1.203
1.2049
1.20554
1.20962
1.21044
1.21809
1.22554
1.22053
1.21749
1.21527
1.21422
1.21313
1.21287
1.21252
1.21286
1.21308
1.21422
1.21517
1.2175
1.22027
1.22555
1.16508
1.17577
1.17202
1.17857
1.17676
1.1808
1.17908
1.18158
1.17908
1.18084
1.17676
1.17868
1.172
1.17616
1.16565
1.17438
1.18711
1.18564
1.1932
1.19157
1.19638
1.19423
1.19736
1.1942
1.19641
1.19148
1.19326
1.18547
1.18747
1.17459
1.14858
1.16281
1.16086
1.16994
1.16784
1.17388
1.17113
1.17514
1.17106
1.17385
1.16763
1.16982
1.1605
1.16281
1.14838
1.1882
1.1957
1.19389
1.19887
1.19697
1.20062
1.19841
1.2012
1.19836
1.20065
1.1968
1.19889
1.19359
1.19599
1.18859
1.20198
1.19824
1.19739
1.19564
1.19452
1.19451
1.1935
1.19429
1.19348
1.19467
1.19443
1.19595
1.19724
1.19936
1.20328
1.2326
1.22491
1.22413
1.21988
1.21865
1.21683
1.2163
1.21595
1.21636
1.21695
1.21882
1.22004
1.22457
1.22578
1.2348
1.19922
1.20088
1.20143
1.20197
1.20173
1.20195
1.2017
1.20197
1.2017
1.20196
1.20166
1.20191
1.20145
1.2014
1.20024
1.21748
1.21749
1.21789
1.21738
1.21709
1.21658
1.21649
1.21634
1.21652
1.21661
1.2171
1.21737
1.21809
1.21816
1.21867
1.20419
1.20485
1.20554
1.2059
1.20593
1.20596
1.20595
1.206
1.20595
1.20595
1.20587
1.20584
1.20567
1.20544
1.20521
1.21324
1.21375
1.21438
1.21463
1.21465
1.21456
1.21456
1.21453
1.21456
1.21455
1.2146
1.21459
1.21456
1.21438
1.21425
1.20653
1.20705
1.2077
1.20809
1.2082
1.2082
1.20821
1.20822
1.20821
1.20818
1.20813
1.20805
1.2079
1.20767
1.2075
1.21154
1.21203
1.21264
1.21303
1.21314
1.21314
1.21314
1.21314
1.21313
1.2131
1.21307
1.213
1.21285
1.21264
1.21248
1.20777
1.20823
1.20883
1.20925
1.2094
1.20941
1.20941
1.20941
1.2094
1.20937
1.20932
1.20923
1.20906
1.20885
1.2087
1.21071
1.21114
1.21171
1.21212
1.21228
1.2123
1.21229
1.21229
1.21228
1.21225
1.21221
1.21211
1.21195
1.21175
1.2116
1.20853
1.20894
1.20951
1.20993
1.21012
1.21015
1.21014
1.21013
1.21012
1.2101
1.21004
1.20994
1.20977
1.20956
1.20942
1.21004
1.21043
1.21097
1.21138
1.21157
1.21161
1.2116
1.21159
1.21158
1.21155
1.2115
1.2114
1.21123
1.21104
1.2109
1.20951
1.20988
1.21041
1.21083
1.21104
1.21108
1.21107
1.21106
1.21105
1.21102
1.21097
1.21086
1.21069
1.2105
1.21037
SCALARS u-velocity float 1
LOOKUP_TABLE default
99.3312
99.3318
99.3323
99.3333
99.3339
99.3348
99.335
99.3355
99.3352
99.3353
99.3347
99.3343
99.3335
99.333
99.3326
98.5361
98.536
98.5358
98.5358
98.5357
98.5358
98.5358
98.536
98.536
98.5361
98.5361
98.5363
98.5364
98.5366
98.5367
99.4245
99.426
99.4275
99.4303
99.4315
99.4339
99.4341
99.4356
99.4345
99.4348
99.4327
99.4319
99.4294
99.4281
99.4268
98.415
98.4138
98.4121
98.4108
98.4099
98.4097
98.4093
98.4096
98.4095
98.4099
98.4102
98.4113
98.4126
98.4143
98.4155
99.5601
99.5668
99.5731
99.5843
99.5888
99.598
99.5984
99.6037
99.5993
99.5999
99.5915
99.5878
99.5774
99.5716
99.5652
98.2347
98.2289
98.2216
98.2186
98.217
98.2194
98.2189
98.2213
98.2192
98.2201
98.2178
98.2197
98.2224
98.2295
98.2349
99.6968
99.7336
99.7641
99.8141
99.8332
99.8713
99.8741
99.8933
99.8764
99.8756
99.8397
99.8222
99.7745
99.746
99.7107
97.956
97.9298
97.9131
97.9302
97.9453
97.9771
97.9853
98.003
97.9866
97.9802
97.9489
97.9354
97.9165
97.9314
97.9548
99.5682
99.8179
99.9401
100.167
100.258
100.415
100.439
100.501
100.443
100.424
100.273
100.185
99.9643
99.8502
99.6099
97.1271
97.0924
97.2664
97.5361
97.7083
97.9456
98.0339
98.1299
98.0395
97.9589
97.7227
97.5609
97.2867
97.1066
97.1121
97.712
99.4645
99.7268
100.862
101.335
101.871
102.051
102.185
102.06
101.887
101.366
100.895
99.7704
99.5266
97.8542
89.2202
94.3167
96.2736
98.127
99.1677
100.311
100.734
101.04
100.75
100.35
99.2107
98.2037
96.358
94.4735
89.1314
89.9539
94.0822
101.469
103.732
106.189
106.655
107.674
107.442
107.691
106.687
106.245
103.826
101.597
94.1481
90.2529
123.274
119.882
120.5
119.096
119.395
117.941
118.328
117.481
118.328
117.916
119.401
119.023
120.444
119.945
124.468
134.605
130.412
127.416
124.841
123.779
122.021
121.825
121.06
121.842
122.042
123.827
124.842
127.49
130.891
135.794
136.392
132.745
129.476
127.082
125.85
124.427
124.023
123.497
124.055
124.482
125.939
127.177
129.721
133.393
137.561
117.715
120.173
118.092
118.301
117.283
117.369
116.655
116.882
116.676
117.369
117.326
118.247
118.226
120.731
120.033
88.816
101.247
102.374
105.98
106.27
108.339
107.978
108.897
107.945
108.267
106.12
105.68
102.085
101.872
91.7177
79.331
90.6079
95.5938
99.0101
100.201
101.948
102.111
102.758
102.068
101.889
99.9763
98.7295
95.3748
91.6978
81.8094
95.6239
98.3425
101.645
102.651
103.083
103.562
103.644
103.87
103.64
103.544
102.96
102.478
101.786
99.6547
98.2061
91.0822
93.8367
96.9933
98.5407
99.081
99.5828
99.734
99.9407
99.7259
99.5412
98.9151
98.3469
97.1933
95.1812
93.5476
95.5304
97.6123
100.206
101.448
101.821
101.965
102.054
102.124
102.058
101.929
101.678
101.31
100.53
99.0007
97.9051
93.3453
95.3278
97.7861
99.1804
99.6274
99.7709
99.848
99.9113
99.8472
99.7166
99.466
99.0572
98.1694
96.7404
95.6658
95.2719
97.0751
99.3463
100.735
101.205
101.295
101.339
101.37
101.336
101.23
101.044
100.646
99.7877
98.4911
97.5126
94.1998
95.9038
98.0914
99.5334
100.069
100.171
100.199
100.219
100.188
100.092
99.9018
99.4696
98.5796
97.3331
96.3988
95.1478
96.7406
98.8286
100.282
100.865
100.977
100.987
100.994
100.969
100.885
100.698
100.245
99.3536
98.1646
97.286
94.6822
96.1937
98.2156
99.6891
100.326
100.459
100.46
100.456
100.432
100.355
100.158
99.6789
98.7758
97.6218
96.7833
95.1173
96.5483
98.4986
99.9754
100.654
100.81
100.804
100.79
100.767
100.695
100.49
99.9901
99.0861
97.9698
97.1722
95.0092
96.3743
98.2668
99.7484
100.467
100.647
100.638
100.615
100.592
100.522
100.306
99.7867
98.8801
97.7936
97.0294
95.1319
96.4364
98.2719
99.7501
100.502
100.707
100.699
100.669
100.644
100.573
100.346
99.811
98.9066
97.8493
97.116
SCALARS v-velocity float 1
LOOKUP_TABLE default
-0.000257678
-0.000492209
-0.000819812
-0.00081676
-0.000842238
-0.000641571
-0.000453468
-0.000184335
9.3498e-05
0.000302541
0.000539843
0.000563461
0.000627627
0.000372838
0.000216209
0.000523942
0.000900814
0.00160644
0.0015655
0.00167871
0.00127171
0.000926976
0.00038962
-0.000165735
-0.000556481
-0.00104184
-0.0010335
-0.00120401
-0.000650904
-0.000437679
-0.000437631
-0.00102118
-0.00142403
-0.00140152
-0.00123342
-0.000882925
-0.000495277
-6.80258e-05
0.000366503
0.000750328
0.00110775
0.00128315
0.00132147
0.000955139
0.000409515
0.00254188
0.00440868
0.00761056
0.00731858
0.00761056
0.00562254
0.00383199
0.00122649
-0.00144025
-0.00336317
-0.00559011
-0.00561346
-0.00630247
-0.00359096
-0.00225325
-0.00108702
-0.00279511
-0.00293138
-0.00245682
-0.00140244
-0.000825171
-0.000186254
0.000105885
0.000424629
0.000976545
0.00149709
0.0024475
0.00283005
0.00271103
0.00101841
0.0120544
0.0211744
0.0342434
0.0328612
0.0327049
0.0239873
0.0150321
0.0032835
-0.0086596
-0.017892
-0.0272157
-0.0281228
-0.030475
-0.0187639
-0.0111559
-0.000625013
0.000276283
0.00892529
0.01311
0.0170125
0.0137467
0.00921489
0.00095284
-0.0071343
-0.0122109
-0.0157775
-0.0125619
-0.00912259
-0.000616129
0.000202121
0.0642347
0.102114
0.151934
0.149651
0.140448
0.104473
0.059662
0.00821869
-0.0439042
-0.0889734
-0.126412
-0.137082
-0.141184
-0.0946298
-0.0609995
0.0294873
0.12196
0.201965
0.216069
0.214844
0.162893
0.0949798
0.00503289
-0.0836859
-0.154504
-0.207272
-0.211804
-0.201594
-0.124095
-0.0333758
0.361456
0.472947
0.653822
0.695374
0.578263
0.450061
0.231046
0.0186366
-0.196533
-0.414134
-0.546053
-0.665115
-0.626868
-0.44932
-0.344989
1.11419
1.75564
2.03726
1.93164
1.67931
1.20577
0.64493
0.02149
-0.594311
-1.1671
-1.63813
-1.90477
-2.01477
-1.75511
-1.1473
-0.287292
3.34004
2.54161
3.07823
2.05095
1.70466
0.775278
0.0364824
-0.712805
-1.63471
-1.99525
-3.01867
-2.51091
-3.31709
0.329883
23.0499
19.8602
15.8692
12.8178
8.97722
6.08149
2.92856
0.0680462
-2.76479
-5.94226
-8.79211
-12.6768
-15.6376
-19.6788
-22.8196
25.0658
16.091
13.2157
8.75519
6.66802
3.88328
2.06525
0.076911
-1.91989
-3.72656
-6.5235
-8.58235
-13.0445
-15.8918
-25.2437
11.3825
7.04889
6.71214
4.11676
3.69531
1.97882
1.20422
0.0698019
-1.11673
-1.84528
-3.63601
-3.9949
-6.70979
-7.01329
-11.6175
-8.21769
-8.5232
-4.70656
-4.79071
-2.39642
-2.09494
-0.685561
0.128538
0.871374
2.3544
2.58724
5.06322
4.91852
8.82179
8.45705
-20.8425
-18.028
-12.0932
-10.0097
-6.19777
-4.36908
-1.83274
0.158522
2.06378
4.70957
6.46302
10.4311
12.4815
18.7063
21.5375
-23.2003
-18.3564
-14.3902
-10.8589
-7.82868
-4.96952
-2.4117
0.189693
2.61237
5.37252
8.03225
11.351
14.6356
19.1326
23.7931
-2.48714
-0.543373
-2.2591
-1.35536
-1.76587
-0.923679
-0.622611
0.0470807
0.651792
1.00343
1.77416
1.40917
2.23459
0.48004
2.35196
-1.84283
-2.15763
-2.61865
-2.1448
-1.98609
-1.25466
-0.689153
0.055479
0.753888
1.35468
2.04464
2.22928
2.6522
2.1131
1.81574
-0.204808
-0.296347
-0.389148
-0.228689
-0.35031
-0.181836
-0.135452
0.0118825
0.142777
0.201516
0.363536
0.252786
0.390094
0.250547
0.17928
-0.169602
-0.358186
-0.416379
-0.328319
-0.354631
-0.234198
-0.139318
0.0113124
0.15293
0.254785
0.374359
0.349452
0.410975
0.312683
0.145422
-0.0414236
-0.110935
-0.0813909
-0.0266335
-0.0486116
-0.0333127
-0.0270787
0.00245567
0.02926
0.0409665
0.0617929
0.0409893
0.0754921
0.0788326
0.02324
-0.0450475
-0.10893
-0.0880127
-0.043514
-0.0452408
-0.0378598
-0.0268595
0.00017538
0.0265063
0.0424272
0.0551085
0.0508301
0.0746446
0.0753597
0.02693
-0.0273122
-0.0614355
-0.0328561
0.00462493
0.0075835
-0.000495968
-0.00532585
-0.000452362
0.00518321
0.00558797
0.00319348
0.00313486
0.0227343
0.0357278
0.0132912
-0.0281355
-0.0607101
-0.0391046
-0.00477603
0.00406101
-0.00231551
-0.00646841
-0.00233016
0.00324079
0.00438168
0.00271367
0.00689811
0.024423
0.0341496
0.0144691
-0.0222001
-0.0458581
-0.0259688
0.00463386
0.0145632
0.00707775
-0.000447396
-0.00143036
-0.000548861
-0.00271443
-0.00610654
-0.00123618
0.0142778
0.0242235
0.0110808
-0.0219403
-0.0459811
-0.0307198
-0.00253498
0.0095812
0.00476151
-0.00178737
-0.00278441
-0.00169718
-0.00300389
-0.00459079
0.00182604
0.016238
0.0239472
0.0111245
-0.0185789
-0.0386201
-0.0253882
5.75475e-05
0.0123696
0.00844314
0.00111112
-0.00197052
-0.00283118
-0.00506316
-0.00640022
4.21048e-05
0.0129982
0.0197931
0.00939131
-0.0189626
-0.0402795
-0.0294031
-0.00485972
0.00878055
0.00678609
0.000324852
-0.00268981
-0.00342216
-0.00493299
-0.00491953
0.00242178
0.0150258
0.0206255
0.00964179
SCALARS Mach float 1
LOOKUP_TABLE default
0.247854
0.247856
0.247857
0.247859
0.247861
0.247863
0.247863
0.247865
0.247864
0.247864
0.247863
0.247862
0.24786
0.247859
0.247858
0.246408
0.246408
0.246407
0.246407
0.246407
0.246407
0.246407
0.246408
0.246408
0.246408
0.246408
0.246409
0.246409
0.246409
0.24641
0.247957
0.247961
0.247964
0.247971
0.247974
0.24798
0.247981
0.247984
0.247982
0.247983
0.247977
0.247975
0.247969
0.247966
0.247962
0.246251
0.246248
0.246244
0.246241
0.246238
0.246239
0.246238
0.24624
0.246238
0.24624
0.24624
0.246243
0.246245
0.24625
0.246252
0.248129
0.248146
0.248162
0.248191
0.248202
0.248226
0.248227
0.24824
0.248229
0.248231
0.248209
0.248199
0.248172
0.248158
0.248142
0.245981
0.245969
0.24595
0.245948
0.245942
0.245955
0.24595
0.245962
0.245951
0.245957
0.245945
0.245952
0.245953
0.245972
0.245983
0.248245
0.248339
0.248417
0.248548
0.248597
0.248698
0.248705
0.248757
0.24871
0.248709
0.248613
0.248569
0.248443
0.248371
0.24828
0.245496
0.245446
0.245404
0.245478
0.245513
0.245622
0.245632
0.245698
0.245636
0.245631
0.245524
0.245493
0.245417
0.245454
0.245497
0.247576
0.248225
0.24854
0.249148
0.249384
0.249812
0.249868
0.250044
0.24988
0.249836
0.249421
0.249193
0.248602
0.248308
0.247682
0.243488
0.243544
0.243999
0.244851
0.245292
0.246019
0.246217
0.246532
0.246234
0.246056
0.245335
0.244921
0.24406
0.24359
0.243462
0.242163
0.24684
0.247577
0.25064
0.251871
0.253353
0.253793
0.2542
0.253815
0.253396
0.251948
0.250729
0.247688
0.247005
0.24252
0.222141
0.236647
0.241625
0.247265
0.24995
0.253278
0.254338
0.255271
0.254383
0.253384
0.250073
0.247473
0.241864
0.237071
0.22196
0.228698
0.23812
0.255193
0.26037
0.26578
0.266746
0.26904
0.26846
0.269072
0.26682
0.265883
0.260589
0.255418
0.238244
0.22927
0.329731
0.313706
0.315555
0.308819
0.309811
0.304493
0.305902
0.302903
0.305896
0.304401
0.309807
0.308563
0.315366
0.313702
0.332826
0.350908
0.335019
0.327697
0.318365
0.316115
0.310031
0.310162
0.307239
0.310214
0.310067
0.316263
0.318336
0.327947
0.336165
0.354079
0.3642
0.349471
0.341071
0.331679
0.329
0.323274
0.323099
0.320408
0.323206
0.323439
0.329313
0.331991
0.341869
0.351273
0.367538
0.306033
0.30885
0.302313
0.300845
0.29819
0.297106
0.295798
0.295504
0.295877
0.297132
0.298386
0.300787
0.302853
0.310469
0.312244
0.231677
0.260797
0.262302
0.27075
0.271114
0.275928
0.27508
0.277125
0.275013
0.27575
0.270797
0.270033
0.261703
0.262485
0.239021
0.194146
0.223542
0.236209
0.245666
0.248948
0.253724
0.254267
0.255961
0.254144
0.253548
0.248343
0.244921
0.235569
0.226103
0.199911
0.24193
0.248537
0.256879
0.259291
0.260441
0.261566
0.261832
0.262327
0.261825
0.26152
0.260146
0.258862
0.257245
0.251798
0.248366
0.226273
0.233212
0.24107
0.245083
0.246504
0.24788
0.248282
0.248836
0.248256
0.247767
0.246082
0.244591
0.241534
0.236476
0.232269
0.240487
0.245658
0.252116
0.255198
0.256141
0.256494
0.256726
0.256891
0.256735
0.256405
0.255788
0.254858
0.252919
0.24909
0.24636
0.232892
0.237796
0.243874
0.247343
0.248464
0.248846
0.249041
0.249207
0.249038
0.24871
0.248065
0.247037
0.244809
0.241255
0.23858
0.239293
0.243769
0.249405
0.252851
0.254021
0.254245
0.254356
0.254431
0.254347
0.254086
0.253624
0.252631
0.250493
0.247261
0.244822
0.235429
0.239641
0.245046
0.248612
0.249939
0.250198
0.250266
0.250319
0.25024
0.250004
0.249529
0.248456
0.246245
0.243151
0.240831
0.238699
0.242649
0.247823
0.251424
0.252872
0.25315
0.253177
0.253192
0.253131
0.252925
0.25246
0.251335
0.249116
0.246156
0.243969
0.236831
0.24057
0.245568
0.249211
0.250786
0.251118
0.25112
0.25111
0.251053
0.250863
0.250376
0.249187
0.246945
0.24408
0.241998
0.238468
0.242015
0.246845
0.250502
0.252184
0.25257
0.252557
0.252521
0.252466
0.252288
0.251779
0.250538
0.248291
0.245514
0.24353
0.237767
0.241145
0.245826
0.24949
0.251268
0.251715
0.251693
0.251636
0.25158
0.251407
0.250873
0.249584
0.247334
0.244635
0.242737
0.238376
0.241607
0.246152
0.249811
0.251673
0.252181
0.252162
0.252087
0.252027
0.251851
0.251289
0.24996
0.247713
0.245084
0.243261
