# vtk DataFile Version 3.0
Structured Grid Example
ASCII
DATASET STRUCTURED_GRID
DIMENSIONS 60 120 1
POINTS 7200 FLOAT
0.0208333 0.00833333 0
0.0208333 0.025 0
0.0208333 0.0416667 0
0.0208332 0.0583333 0
0.0208332 0.075 0
0.0208332 0.0916667 0
0.0208332 0.108333 0
0.0208331 0.125 0
0.0208331 0.141667 0
0.0208331 0.158333 0
0.0208331 0.175 0
0.020833 0.191667 0
0.020833 0.208333 0
0.020833 0.225 0
0.020833 0.241667 0
0.020833 0.258333 0
0.0208329 0.275 0
0.0208329 0.291667 0
0.0208329 0.308333 0
0.0208329 0.325 0
0.0208329 0.341667 0
0.0208329 0.358333 0
0.0208329 0.375 0
0.0208328 0.391667 0
0.0208328 0.408333 0
0.0208328 0.425 0
0.0208328 0.441667 0
0.0208328 0.458333 0
0.0208328 0.475 0
0.0208328 0.491667 0
0.0208328 0.508333 0
0.0208328 0.525 0
0.0208328 0.541667 0
0.0208328 0.558333 0
0.0208328 0.575 0
0.0208328 0.591667 0
0.0208328 0.608333 0
0.0208329 0.625 0
0.0208329 0.641667 0
0.0208329 0.658333 0
0.0208329 0.675 0
0.0208329 0.691667 0
0.0208329 0.708333 0
0.0208329 0.725 0
0.020833 0.741667 0
0.020833 0.758333 0
0.020833 0.775 0
0.020833 0.791667 0
0.020833 0.808333 0
0.0208331 0.825 0
0.0208331 0.841667 0
0.0208331 0.858333 0
0.0208331 0.875 0
0.0208332 0.891667 0
0.0208332 0.908333 0
0.0208332 0.925 0
0.0208332 0.941667 0
0.0208333 0.958333 0
0.0208333 0.975 0
0.0208333 0.991667 0
0.0625 0.00833334 0
0.0624999 0.025 0
0.0624998 0.0416667 0
0.0624997 0.0583333 0
0.0624996 0.075 0
0.0624996 0.0916667 0
0.0624995 0.108333 0
0.0624994 0.125 0
0.0624993 0.141667 0
0.0624993 0.158333 0
0.0624992 0.175 0
0.0624991 0.191667 0
0.062499 0.208333 0
0.062499 0.225 0
0.0624989 0.241667 0
0.0624989 0.258333 0
0.0624988 0.275 0
0.0624988 0.291667 0
0.0624987 0.308333 0
0.0624987 0.325 0
0.0624986 0.341667 0
0.0624986 0.358333 0
0.0624986 0.375 0
0.0624985 0.391667 0
0.0624985 0.408333 0
0.0624985 0.425 0
0.0624985 0.441667 0
0.0624984 0.458333 0
0.0624984 0.475 0
0.0624984 0.491667 0
0.0624984 0.508333 0
0.0624984 0.525 0
0.0624984 0.541667 0
0.0624985 0.558333 0
0.0624985 0.575 0
0.0624985 0.591667 0
0.0624985 0.608333 0
0.0624986 0.625 0
0.0624986 0.641667 0
0.0624986 0.658333 0
0.0624987 0.675 0
0.0624987 0.691667 0
0.0624988 0.708333 0
0.0624988 0.725 0
0.0624989 0.741667 0
0.0624989 0.758333 0
0.062499 0.775 0
0.062499 0.791667 0
0.0624991 0.808333 0
0.0624992 0.825 0
0.0624993 0.841667 0
0.0624993 0.858333 0
0.0624994 0.875 0
0.0624995 0.891667 0
0.0624996 0.908333 0
0.0624996 0.925 0
0.0624997 0.941667 0
0.0624998 0.958333 0
0.0624999 0.975 0
0.0625 0.991667 0
0.104167 0.00833334 0
0.104166 0.025 0
0.104166 0.0416667 0
0.104166 0.0583334 0
0.104166 0.075 0
0.104166 0.0916667 0
0.104166 0.108333 0
0.104166 0.125 0
0.104166 0.141667 0
0.104165 0.158333 0
0.104165 0.175 0
0.104165 0.191667 0
0.104165 0.208333 0
0.104165 0.225 0
0.104165 0.241667 0
0.104165 0.258333 0
0.104165 0.275 0
0.104165 0.291667 0
0.104164 0.308333 0
0.104164 0.325 0
0.104164 0.341667 0
0.104164 0.358333 0
0.104164 0.375 0
0.104164 0.391667 0
0.104164 0.408333 0
0.104164 0.425 0
0.104164 0.441667 0
0.104164 0.458333 0
0.104164 0.475 0
0.104164 0.491667 0
0.104164 0.508333 0
0.104164 0.525 0
0.104164 0.541667 0
0.104164 0.558333 0
0.104164 0.575 0
0.104164 0.591667 0
0.104164 0.608333 0
0.104164 0.625 0
0.104164 0.641667 0
0.104164 0.658333 0
0.104164 0.675 0
0.104164 0.691667 0
0.104165 0.708333 0
0.104165 0.725 0
0.104165 0.741667 0
0.104165 0.758333 0
0.104165 0.775 0
0.104165 0.791667 0
0.104165 0.808333 0
0.104165 0.825 0
0.104165 0.841667 0
0.104166 0.858333 0
0.104166 0.875 0
0.104166 0.891667 0
0.104166 0.908333 0
0.104166 0.925 0
0.104166 0.941667 0
0.104166 0.958333 0
0.104166 0.975 0
0.104167 0.991667 0
0.145833 0.00833334 0
0.145833 0.025 0
0.145833 0.0416667 0
0.145833 0.0583334 0
0.145832 0.0750001 0
0.145832 0.0916667 0
0.145832 0.108333 0
0.145832 0.125 0
0.145832 0.141667 0
0.145832 0.158333 0
0.145831 0.175 0
0.145831 0.191667 0
0.145831 0.208333 0
0.145831 0.225 0
0.145831 0.241667 0
0.145831 0.258333 0
0.14583 0.275 0
0.14583 0.291667 0
0.14583 0.308333 0
0.14583 0.325 0
0.14583 0.341667 0
0.14583 0.358333 0
0.14583 0.375 0
0.14583 0.391667 0
0.14583 0.408333 0
0.14583 0.425 0
0.14583 0.441667 0
0.14583 0.458333 0
0.14583 0.475 0
0.14583 0.491667 0
0.14583 0.508333 0
0.14583 0.525 0
0.14583 0.541667 0
0.14583 0.558333 0
0.14583 0.575 0
0.14583 0.591667 0
0.14583 0.608333 0
0.14583 0.625 0
0.14583 0.641667 0
0.14583 0.658333 0
0.14583 0.675 0
0.14583 0.691667 0
0.14583 0.708333 0
0.14583 0.725 0
0.145831 0.741667 0
0.145831 0.758333 0
0.145831 0.775 0
0.145831 0.791667 0
0.145831 0.808333 0
0.145831 0.825 0
0.145832 0.841667 0
0.145832 0.858333 0
0.145832 0.875 0
0.145832 0.891667 0
0.145832 0.908333 0
0.145832 0.925 0
0.145833 0.941667 0
0.145833 0.958333 0
0.145833 0.975 0
0.145833 0.991667 0
0.1875 0.00833334 0
0.1875 0.025 0
0.187499 0.0416667 0
0.187499 0.0583334 0
0.187499 0.0750001 0
0.187499 0.0916668 0
0.187498 0.108333 0
0.187498 0.125 0
0.187498 0.141667 0
0.187498 0.158333 0
0.187497 0.175 0
0.187497 0.191667 0
0.187497 0.208333 0
0.187497 0.225 0
0.187497 0.241667 0
0.187496 0.258333 0
0.187496 0.275 0
0.187496 0.291667 0
0.187496 0.308333 0
0.187496 0.325 0
0.187496 0.341667 0
0.187496 0.358333 0
0.187495 0.375 0
0.187495 0.391667 0
0.187495 0.408333 0
0.187495 0.425 0
0.187495 0.441667 0
0.187495 0.458333 0
0.187495 0.475 0
0.187495 0.491667 0
0.187495 0.508333 0
0.187495 0.525 0
0.187495 0.541667 0
0.187495 0.558333 0
0.187495 0.575 0
0.187495 0.591667 0
0.187495 0.608333 0
0.187495 0.625 0
0.187496 0.641667 0
0.187496 0.658333 0
0.187496 0.675 0
0.187496 0.691667 0
0.187496 0.708333 0
0.187496 0.725 0
0.187496 0.741667 0
0.187497 0.758333 0
0.187497 0.775 0
0.187497 0.791667 0
0.187497 0.808333 0
0.187497 0.825 0
0.187498 0.841667 0
0.187498 0.858333 0
0.187498 0.875 0
0.187498 0.891667 0
0.187499 0.908333 0
0.187499 0.925 0
0.187499 0.941667 0
0.187499 0.958333 0
0.1875 0.975 0
0.1875 0.991667 0
0.229167 0.00833334 0
0.229166 0.025 0
0.229166 0.0416667 0
0.229166 0.0583334 0
0.229165 0.0750001 0
0.229165 0.0916668 0
0.229165 0.108333 0
0.229164 0.125 0
0.229164 0.141667 0
0.229164 0.158334 0
0.229163 0.175 0
0.229163 0.191667 0
0.229163 0.208334 0
0.229163 0.225 0
0.229162 0.241667 0
0.229162 0.258334 0
0.229162 0.275 0
0.229162 0.291667 0
0.229162 0.308334 0
0.229161 0.325 0
0.229161 0.341667 0
0.229161 0.358334 0
0.229161 0.375 0
0.229161 0.391667 0
0.229161 0.408333 0
0.229161 0.425 0
0.229161 0.441667 0
0.22916 0.458333 0
0.22916 0.475 0
0.22916 0.491667 0
0.22916 0.508333 0
0.22916 0.525 0
0.22916 0.541667 0
0.229161 0.558333 0
0.229161 0.575 0
0.229161 0.591667 0
0.229161 0.608333 0
0.229161 0.625 0
0.229161 0.641666 0
0.229161 0.658333 0
0.229161 0.675 0
0.229162 0.691666 0
0.229162 0.708333 0
0.229162 0.725 0
0.229162 0.741666 0
0.229162 0.758333 0
0.229163 0.775 0
0.229163 0.791666 0
0.229163 0.808333 0
0.229163 0.825 0
0.229164 0.841666 0
0.229164 0.858333 0
0.229164 0.875 0
0.229165 0.891667 0
0.229165 0.908333 0
0.229165 0.925 0
0.229166 0.941667 0
0.229166 0.958333 0
0.229166 0.975 0
0.229167 0.991667 0
0.270833 0.00833335 0
0.270833 0.025 0
0.270832 0.0416667 0
0.270832 0.0583334 0
0.270832 0.0750001 0
0.270831 0.0916668 0
0.270831 0.108334 0
0.27083 0.125 0
0.27083 0.141667 0
0.27083 0.158334 0
0.270829 0.175 0
0.270829 0.191667 0
0.270829 0.208334 0
0.270828 0.225 0
0.270828 0.241667 0
0.270828 0.258334 0
0.270828 0.275 0
0.270827 0.291667 0
0.270827 0.308334 0
0.270827 0.325 0
0.270827 0.341667 0
0.270826 0.358334 0
0.270826 0.375 0
0.270826 0.391667 0
0.270826 0.408333 0
0.270826 0.425 0
0.270826 0.441667 0
0.270826 0.458333 0
0.270826 0.475 0
0.270826 0.491667 0
0.270826 0.508333 0
0.270826 0.525 0
0.270826 0.541667 0
0.270826 0.558333 0
0.270826 0.575 0
0.270826 0.591667 0
0.270826 0.608333 0
0.270826 0.625 0
0.270826 0.641666 0
0.270827 0.658333 0
0.270827 0.675 0
0.270827 0.691666 0
0.270827 0.708333 0
0.270828 0.725 0
0.270828 0.741666 0
0.270828 0.758333 0
0.270828 0.775 0
0.270829 0.791666 0
0.270829 0.808333 0
0.270829 0.825 0
0.27083 0.841666 0
0.27083 0.858333 0
0.27083 0.875 0
0.270831 0.891666 0
0.270831 0.908333 0
0.270832 0.925 0
0.270832 0.941667 0
0.270832 0.958333 0
0.270833 0.975 0
0.270833 0.991667 0
0.3125 0.00833335 0
0.312499 0.0250001 0
0.312499 0.0416668 0
0.312498 0.0583335 0
0.312498 0.0750002 0
0.312497 0.0916669 0
0.312497 0.108334 0
0.312497 0.125 0
0.312496 0.141667 0
0.312496 0.158334 0
0.312495 0.175 0
0.312495 0.191667 0
0.312494 0.208334 0
0.312494 0.225 0
0.312494 0.241667 0
0.312493 0.258334 0
0.312493 0.275 0
0.312493 0.291667 0
0.312492 0.308334 0
0.312492 0.325 0
0.312492 0.341667 0
0.312492 0.358334 0
0.312492 0.375 0
0.312491 0.391667 0
0.312491 0.408334 0
0.312491 0.425 0
0.312491 0.441667 0
0.312491 0.458333 0
0.312491 0.475 0
0.312491 0.491667 0
0.312491 0.508333 0
0.312491 0.525 0
0.312491 0.541667 0
0.312491 0.558333 0
0.312491 0.575 0
0.312491 0.591666 0
0.312491 0.608333 0
0.312492 0.625 0
0.312492 0.641666 0
0.312492 0.658333 0
0.312492 0.675 0
0.312492 0.691666 0
0.312493 0.708333 0
0.312493 0.725 0
0.312493 0.741666 0
0.312494 0.758333 0
0.312494 0.775 0
0.312494 0.791666 0
0.312495 0.808333 0
0.312495 0.825 0
0.312496 0.841666 0
0.312496 0.858333 0
0.312497 0.875 0
0.312497 0.891666 0
0.312497 0.908333 0
0.312498 0.925 0
0.312498 0.941667 0
0.312499 0.958333 0
0.312499 0.975 0
0.3125 0.991667 0
0.354166 0.00833336 0
0.354166 0.0250001 0
0.354165 0.0416668 0
0.354165 0.0583335 0
0.354164 0.0750002 0
0.354164 0.0916669 0
0.354163 0.108334 0
0.354163 0.125 0
0.354162 0.141667 0
0.354162 0.158334 0
0.354161 0.175 0
0.354161 0.191667 0
0.35416 0.208334 0
0.35416 0.225 0
0.354159 0.241667 0
0.354159 0.258334 0
0.354158 0.275 0
0.354158 0.291667 0
0.354158 0.308334 0
0.354157 0.325 0
0.354157 0.341667 0
0.354157 0.358334 0
0.354157 0.375 0
0.354157 0.391667 0
0.354156 0.408334 0
0.354156 0.425 0
0.354156 0.441667 0
0.354156 0.458333 0
0.354156 0.475 0
0.354156 0.491667 0
0.354156 0.508333 0
0.354156 0.525 0
0.354156 0.541667 0
[...]
POINT_DATA 7200
SCALARS pressure float 1
LOOKUP_TABLE default
84600.6
84600.6
84600.6
84600.6
84600.6
84600.6
84600.6
84600.6
84600.6
84600.6
84600.6
84600.6
84600.6
84600.6
84600.6
84600.6
84600.6
84600.6
84600.6
84600.6
84600.6
84600.6
84600.6
84600.6
84600.6
84600.6
84600.6
84600.6
84600.6
84600.6
84600.6
84600.6
84600.6
84600.6
84600.6
84600.6
84600.6
84600.6
84600.6
84600.6
84600.6
84600.6
84600.6
84600.6
84600.6
84600.6
84600.6
84600.6
84600.6
84600.6
84600.6
84600.6
84600.6
84600.6
84600.6
84600.6
84600.6
84600.6
84600.6
84600.6
84612.3
84612.3
84612.3
84612.3
84612.3
84612.3
84612.3
84612.3
84612.3
84612.3
84612.3
84612.3
84612.3
84612.3
84612.3
84612.3
84612.3
84612.3
84612.3
84612.3
84612.3
84612.3
84612.3
84612.3
84612.3
84612.3
84612.3
84612.3
84612.3
84612.3
84612.3
84612.3
84612.3
84612.3
84612.3
84612.3
84612.3
84612.3
84612.3
84612.3
84612.3
84612.3
84612.3
84612.3
84612.3
84612.3
84612.3
84612.3
84612.3
84612.3
84612.3
84612.3
84612.3
84612.3
84612.3
84612.3
84612.3
84612.3
84612.3
84612.3
84605
84605
84605
84605
84605
84605
84605
84605
84605
84605
84605
84605
84605
84605
84605
84605
84605
84605
84605
84605
84605
84605
84605
84605
84605
84605
84605
84605
84605
84605
84605
84605
84605
84605
84605
84605
84605
84605
84605
84605
84605
84605
84605
84605
84605
84605
84605
84605
84605
84605
84605
84605
84605
84605
84605
84605
84605
84605
84605
84605
84608.3
84608.3
84608.3
84608.3
84608.3
84608.3
84608.3
84608.3
84608.3
84608.3
84608.3
84608.3
84608.3
84608.3
84608.3
84608.3
84608.3
84608.3
84608.3
84608.3
84608.3
84608.3
84608.3
84608.3
84608.3
84608.3
84608.3
84608.3
84608.3
84608.3
84608.3
84608.3
84608.3
84608.3
84608.3
84608.3
84608.3
84608.3
84608.3
84608.3
84608.3
84608.3
84608.3
84608.3
84608.3
84608.3
84608.3
84608.3
84608.3
84608.3
84608.3
84608.3
84608.3
84608.3
84608.3
84608.3
84608.3
84608.3
84608.3
84608.3
84608.3
84608.3
84608.3
84608.3
84608.3
84608.3
84608.3
84608.3
84608.3
84608.3
84608.3
84608.3
84608.3
84608.3
84608.3
84608.3
84608.3
84608.3
84608.3
84608.3
84608.3
84608.3
84608.3
84608.3
84608.3
84608.3
84608.3
84608.3
84608.3
84608.3
84608.3
84608.3
84608.3
84608.3
84608.3
84608.3
84608.3
84608.3
84608.3
84608.3
84608.3
84608.3
84608.3
84608.3
84608.3
84608.3
84608.3
84608.3
84608.3
84608.3
84608.3
84608.3
84608.3
84608.3
84608.3
84608.3
84608.3
84608.3
84608.3
84608.3
84605.5
84605.5
84605.5
84605.5
84605.5
84605.5
84605.5
84605.5
84605.5
84605.5
84605.5
84605.5
84605.5
84605.5
84605.5
84605.5
84605.5
84605.5
84605.5
84605.5
84605.5
84605.5
84605.5
84605.5
84605.5
84605.5
84605.5
84605.5
84605.5
84605.5
84605.5
84605.5
84605.5
84605.5
84605.5
84605.5
84605.5
84605.5
84605.5
84605.5
84605.5
84605.5
84605.5
84605.5
84605.5
84605.5
84605.5
84605.5
84605.5
84605.5
84605.5
84605.5
84605.5
84605.5
84605.5
84605.5
84605.5
84605.5
84605.5
84605.5
84610.8
84610.8
84610.8
84610.8
84610.8
84610.8
84610.8
84610.8
84610.7
84610.7
84610.7
84610.7
84610.7
84610.7
84610.7
84610.7
84610.7
84610.7
84610.7
84610.7
84610.7
84610.7
84610.7
84610.7
84610.7
84610.7
84610.7
84610.7
84610.7
84610.7
84610.7
84610.7
84610.7
84610.7
84610.7
84610.7
84610.7
84610.7
84610.7
84610.7
84610.7
84610.7
84610.7
84610.7
84610.7
84610.7
84610.7
84610.7
84610.7
84610.7
84610.7
84610.7
84610.7
84610.7
84610.7
84610.7
84610.7
84610.7
84610.7
84610.7
84603.4
84603.4
84603.4
84603.4
84603.4
84603.4
84603.4
84603.4
84603.4
84603.4
84603.4
84603.4
84603.4
84603.3
84603.3
84603.3
84603.3
84603.3
84603.3
84603.3
84603.3
84603.3
84603.3
84603.3
84603.3
84603.3
84603.3
84603.3
84603.3
84603.3
84603.3
84603.3
84603.3
84603.3
84603.3
84603.3
84603.3
84603.3
84603.3
84603.3
84603.3
84603.3
84603.3
84603.3
84603.3
84603.3
84603.3
84603.3
84603.3
84603.3
84603.3
84603.3
84603.3
84603.4
84603.4
84603.4
84603.4
84603.4
84603.4
84603.4
84612.7
84612.7
84612.7
84612.7
84612.7
84612.7
84612.7
84612.7
84612.7
84612.7
84612.7
84612.7
84612.7
84612.7
84612.7
84612.7
84612.7
84612.7
84612.7
84612.7
84612.7
84612.7
84612.7
84612.7
84612.7
84612.7
84612.7
84612.7
84612.7
84612.7
84612.7
84612.7
84612.7
84612.7
84612.7
84612.7
84612.7
84612.7
84612.7
84612.7
84612.7
84612.7
84612.7
84612.7
84612.7
84612.7
84612.7
84612.7
84612.7
84612.7
84612.7
84612.7
84612.7
84612.7
84612.7
84612.7
84612.7
84612.7
84612.7
84612.7
84601.6
84601.5
84601.5
84601.5
84601.5
84601.5
84601.5
84601.5
84601.5
84601.5
84601.5
84601.5
84601.5
84601.5
84601.5
84601.5
84601.5
84601.5
84601.5
84601.5
84601.5
84601.5
84601.5
84601.5
84601.5
84601.5
84601.4
84601.4
84601.4
84601.4
84601.4
84601.4
84601.4
84601.4
84601.4
84601.4
84601.5
84601.5
84601.5
84601.5
84601.5
84601.5
84601.5
84601.5
84601.5
84601.5
84601.5
84601.5
84601.5
84601.5
84601.5
84601.5
84601.5
84601.5
84601.5
84601.5
84601.5
84601.5
84601.5
84601.5
84614.5
84614.5
84614.5
84614.5
84614.5
84614.5
84614.5
84614.5
84614.5
84614.5
84614.5
84614.5
84614.5
84614.5
84614.5
84614.5
84614.5
84614.5
84614.5
84614.5
84614.5
84614.5
84614.5
84614.5
84614.5
84614.4
84614.4
84614.4
84614.4
84614.4
84614.4
84614.4
84614.4
84614.4
84614.4
84614.4
84614.4
84614.4
84614.4
84614.5
84614.5
84614.5
84614.5
84614.5
84614.5
84614.5
84614.5
84614.5
84614.5
84614.5
84614.5
84614.5
84614.5
84614.5
84614.5
84614.5
84614.5
84614.5
84614.5
84614.5
84599.9
84599.9
84599.9
84599.8
84599.8
84599.8
84599.8
84599.8
84599.8
84599.8
84599.8
84599.8
84599.8
84599.8
84599.8
84599.8
84599.8
84599.7
84599.7
84599.7
84599.7
84599.7
84599.7
84599.7
84599.7
84599.7
84599.7
84599.7
84599.7
84599.7
84599.7
84599.7
84599.7
84599.7
84599.7
84599.7
84599.7
84599.7
84599.7
84599.7
84599.7
84599.7
84599.7
84599.7
84599.7
84599.8
84599.8
84599.8
84599.8
84599.8
84599.8
84599.8
84599.8
84599.8
84599.8
84599.8
84599.8
84599.8
84599.8
84599.8
84616.3
84616.3
84616.3
84616.3
84616.3
84616.3
84616.3
84616.3
84616.3
84616.3
84616.3
84616.3
84616.2
84616.2
84616.2
84616.2
84616.2
84616.2
84616.2
84616.2
84616.2
84616.2
84616.2
84616.2
84616.2
84616.2
84616.2
84616.2
84616.2
84616.2
84616.2
84616.1
84616.2
84616.2
84616.2
84616.2
84616.2
84616.2
84616.2
84616.2
84616.2
84616.2
84616.2
84616.2
84616.2
84616.2
84616.2
84616.2
84616.2
84616.2
84616.2
84616.2
84616.2
84616.2
84616.3
84616.3
84616.3
84616.3
84616.3
84616.3
84598.2
84598.1
84598.1
84598.1
84598.1
84598.1
84598.1
84598.1
84598.1
84598.1
84598.1
84598.1
84598
84598
84598
84598
84598
84598
84597.9
84597.9
84597.9
84597.9
84597.9
84597.9
84597.9
84597.9
84597.9
84597.8
84597.8
84597.8
84597.8
84597.8
84597.8
84597.8
84597.8
84597.9
84597.9
84597.9
84597.9
84597.9
84597.9
84597.9
84597.9
84597.9
84598
84598
84598
84598
84598
84598
84598
84598.1
84598.1
84598.1
84598.1
84598.1
84598.1
84598.1
84598.1
84598.1
84618.2
84618.2
84618.2
84618.2
84618.2
84618.2
84618.2
84618.2
84618.1
84618.1
84618.1
84618.1
84618.1
84618.1
84618.1
84618.1
84618
84618
84618
84618
84618
84618
84618
84618
84618
84617.9
84617.9
84617.9
84617.9
84617.9
84617.9
84617.9
84617.9
84617.9
84617.9
84617.9
84617.9
84618
84618
84618
84618
84618
84618
84618
84618
84618
84618
84618.1
84618.1
84618.1
84618.1
84618.1
84618.1
84618.1
84618.1
84618.1
84618.1
84618.1
84618.1
84618.1
84596.4
84596.4
84596.3
84596.3
84596.3
84596.3
84596.3
84596.3
84596.3
84596.2
84596.2
84596.2
84596.2
84596.1
84596.1
84596.1
84596
84596
84596
84596
84595.9
84595.9
84595.9
84595.9
84595.9
84595.8
84595.8
84595.8
84595.8
84595.8
84595.8
84595.8
84595.8
84595.8
84595.8
84595.8
84595.9
84595.9
84595.9
84595.9
84595.9
84596
84596
84596
84596
84596.1
84596.1
84596.1
84596.1
84596.2
84596.2
84596.2
84596.2
84596.2
84596.3
84596.3
84596.3
84596.3
84596.3
84596.3
84620.3
84620.3
84620.3
84620.3
84620.3
84620.3
84620.3
84620.3
84620.2
84620.2
84620.2
84620.2
84620.2
84620.1
84620.1
84620.1
84620.1
84620
84620
84620
84620
84619.9
84619.9
84619.9
84619.9
84619.9
84619.9
84619.9
84619.9
84619.8
84619.8
84619.8
84619.8
84619.9
84619.9
84619.9
84619.9
84619.9
84619.9
84619.9
84620
84620
84620
84620
84620
84620.1
84620.1
84620.1
84620.1
84620.1
84620.2
84620.2
84620.2
84620.2
84620.2
84620.2
84620.2
84620.3
84620.3
84620.3
84594.4
84594.4
84594.4
84594.4
84594.4
84594.3
84594.3
84594.3
84594.2
84594.2
84594.2
84594.1
84594.1
84594
84594
84593.9
84593.9
84593.8
84593.8
84593.7
84593.7
84593.6
84593.6
84593.6
84593.5
84593.5
84593.5
84593.5
84593.5
84593.4
84593.4
84593.4
84593.5
84593.5
84593.5
84593.5
84593.5
84593.6
84593.6
84593.6
84593.7
84593.7
84593.8
84593.8
84593.9
84593.9
84594
84594
84594.1
84594.1
84594.1
84594.2
84594.2
84594.3
84594.3
84594.3
84594.3
84594.3
84594.3
84594.4
84622.8
84622.8
84622.8
84622.8
84622.8
84622.8
84622.7
84622.7
84622.7
84622.6
84622.6
84622.6
84622.5
84622.5
84622.4
84622.4
84622.3
84622.3
84622.2
84622.2
84622.2
84622.1
84622.1
84622.1
84622
84622
84622
84622
84622
84622
84621.9
84622
84622
84622
84622
84622
84622
84622.1
84622.1
84622.1
84622.2
84622.2
84622.2
84622.3
84622.3
84622.4
84622.4
84622.4
84622.5
84622.5
84622.6
84622.6
84622.6
84622.6
84622.7
84622.7
84622.7
84622.7
84622.7
84622.7
84592.3
84592.3
84592.3
84592.3
84592.3
84592.2
84592.2
84592.1
84592
84592
84591.9
84591.8
84591.7
84591.6
84591.5
84591.4
84591.4
84591.3
84591.2
84591.1
84591
84590.9
84590.9
84590.8
84590.8
84590.7
84590.7
84590.6
84590.6
84590.6
84590.6
84590.6
84590.6
84590.7
84590.7
84590.7
84590.8
84590.8
84590.9
84591
84591
84591.1
84591.2
84591.3
84591.4
84591.5
84591.5
84591.6
84591.7
84591.8
84591.9
84591.9
84592
84592.1
84592.1
84592.2
84592.2
84592.2
84592.2
84592.3
84625.8
84625.8
84625.8
84625.8
84625.8
84625.7
84625.7
84625.6
84625.6
84625.5
84625.4
84625.3
84625.3
84625.2
84625.1
84625
84624.9
84624.8
84624.8
84624.7
84624.6
84624.6
84624.5
84624.4
84624.4
84624.3
84624.3
84624.3
84624.3
84624.2
84624.2
84624.2
84624.3
84624.3
84624.3
84624.3
84624.4
84624.4
84624.5
84624.6
84624.6
84624.7
84624.8
84624.9
84624.9
84625
84625.1
84625.2
84625.2
84625.3
84625.4
84625.4
84625.5
84625.6
84625.6
84625.6
84625.7
84625.7
84625.7
84625.7
84590.2
84590.1
84590.1
84590.1
84590
84589.9
84589.8
84589.7
84589.6
84589.5
84589.3
84589.2
84589
84588.9
84588.7
84588.6
84588.4
84588.2
84588.1
84588
84587.8
84587.7
84587.6
84587.5
84587.4
84587.3
84587.2
84587.2
84587.1
84587.1
84587.1
84587.1
84587.1
84587.2
84587.2
84587.3
84587.4
84587.5
84587.6
84587.8
84587.9
84588
84588.2
84588.3
84588.5
84588.6
84588.8
84588.9
84589.1
84589.2
84589.4
84589.5
84589.6
84589.7
84589.8
84589.9
84589.9
84590
84590
84590.1
84629.6
84629.6
84629.5
84629.5
84629.4
84629.3
84629.3
84629.2
84629.1
84628.9
84628.8
84628.7
84628.5
84628.4
84628.2
84628.1
84627.9
84627.8
84627.6
84627.5
84627.3
84627.2
84627.1
84627
84626.9
84626.8
84626.8
84626.7
84626.7
84626.7
84626.7
84626.7
84626.7
84626.7
84626.8
84626.9
84626.9
84627
84627.2
84627.3
84627.4
84627.5
84627.7
84627.8
84628
84628.1
84628.2
84628.4
84628.5
84628.7
84628.8
84628.9
84629
84629.1
84629.2
84629.3
84629.3
84629.4
84629.4
84629.4
84588.1
84588
84588
84587.9
84587.8
84587.6
84587.5
84587.3
84587.1
84586.8
84586.6
84586.3
84586.1
84585.8
84585.5
84585.2
84584.9
84584.6
84584.4
84584.1
84583.9
84583.6
84583.4
84583.2
84583.1
84582.9
84582.8
84582.7
84582.6
84582.6
84582.6
84582.6
84582.7
84582.8
84582.9
84583
84583.2
84583.4
84583.5
84583.8
84584
84584.3
84584.5
84584.8
84585.1
84585.4
84585.6
84585.9
84586.2
84586.4
84586.7
84586.9
84587.1
84587.3
84587.5
84587.6
84587.7
84587.8
84587.9
84587.9
84634.4
84634.4
84634.3
84634.2
84634.1
84634
84633.8
84633.6
84633.4
84633.2
84632.9
84632.7
84632.4
84632.2
84631.9
84631.6
84631.3
84631.1
84630.8
84630.5
84630.3
84630.1
84629.8
84629.7
84629.5
84629.4
84629.2
84629.1
84629.1
84629.1
84629
84629.1
84629.1
84629.2
84629.3
84629.4
84629.6
84629.8
84630
84630.2
84630.4
84630.7
84630.9
84631.2
84631.5
84631.7
84632
84632.3
84632.5
84632.8
84633
84633.2
84633.4
84633.6
84633.8
84633.9
84634
84634.1
84634.1
84634.2
84586.4
84586.3
84586.2
84586
84585.8
84585.6
84585.3
84584.9
84584.6
84584.1
84583.7
84583.2
84582.8
84582.2
84581.8
84581.2
84580.7
84580.2
84579.7
84579.3
84578.8
84578.4
84578
84577.7
84577.4
84577.1
84576.9
84576.8
84576.7
84576.6
84576.6
84576.6
84576.7
84576.9
84577.1
84577.3
84577.6
84578
84578.3
84578.7
84579.1
84579.6
84580.1
84580.6
84581.1
84581.6
84582.1
84582.6
84583
84583.5
84583.9
84584.4
84584.7
84585.1
84585.3
84585.6
84585.8
84586
84586.1
84586.1
84640.8
84640.8
84640.7
84640.5
84640.3
84640
84639.7
84639.4
84639
84638.6
84638.2
84637.7
84637.2
84636.7
84636.2
84635.7
84635.2
84634.7
84634.2
84633.7
84633.3
84632.9
84632.5
84632.2
84631.8
84631.6
84631.4
84631.2
84631.1
84631
84631
84631.1
84631.2
84631.3
84631.5
84631.8
84632.1
84632.4
84632.8
84633.1
84633.6
84634
84634.5
84635
84635.5
84636
84636.5
84637
84637.5
84637.9
84638.3
84638.8
84639.1
84639.5
84639.8
84640
84640.2
84640.4
84640.5
84640.5
84585.7
84585.6
84585.5
84585.1
84584.8
84584.3
84583.8
84583.1
84582.5
84581.7
84581
84580.1
84579.2
84578.3
84577.4
84576.5
84575.6
84574.7
84573.9
84573
84572.2
84571.5
84570.8
84570.2
84569.7
84569.2
84568.8
84568.5
84568.4
84568.2
84568.2
84568.3
84568.5
84568.8
84569.1
84569.6
84570.1
84570.7
84571.3
84572.1
84572.8
84573.7
84574.5
84575.4
84576.3
84577.2
84578.1
84579
84579.8
84580.7
84581.4
84582.2
84582.8
84583.5
84584
84584.5
84584.8
84585.1
84585.3
84585.4
84649.9
84649.7
84649.5
84649.2
84648.9
84648.4
84647.8
84647.2
84646.5
84645.7
84644.9
84644.1
84643.2
84642.3
84641.3
84640.4
84639.5
84638.6
84637.7
84636.8
84636
84635.3
84634.6
84633.9
84633.4
84632.9
84632.5
84632.2
84632
84631.9
84631.9
84632
84632.2
84632.5
84632.8
84633.3
84633.8
84634.4
84635.1
84635.8
84636.6
84637.4
84638.3
84639.2
84640.1
84641
84642
84642.9
84643.7
84644.6
84645.4
84646.1
84646.8
84647.5
84648
84648.5
84648.8
84649.2
84649.3
84649.5
84587.4
84587.2
84586.9
84586.3
84585.7
84584.8
84583.9
84582.7
84581.6
84580.1
84578.8
84577.2
84575.7
84574
84572.5
84570.8
84569.2
84567.6
84566.1
84564.5
84563.2
84561.8
84560.7
84559.5
84558.6
84557.8
84557.1
84556.6
84556.3
84556.1
84556.1
84556.2
84556.6
84557.1
84557.7
84558.5
84559.4
84560.5
84561.6
84563
84564.3
84565.9
84567.3
84569
84570.5
84572.2
84573.7
84575.4
84576.9
84578.5
84579.8
84581.2
84582.3
84583.5
84584.4
84585.3
84585.9
84586.5
84586.7
84587
84663.1
84662.8
84662.5
84661.9
84661.3
84660.4
84659.4
84658.2
84656.9
84655.5
84654
84652.5
84650.8
84649.2
84647.4
84645.8
84644
84642.4
84640.7
84639.2
84637.7
84636.4
84635.1
84634
84632.9
84632.1
84631.4
84630.9
84630.5
84630.3
84630.3
84630.5
84630.8
84631.3
84632
84632.8
84633.8
84634.9
84636.1
84637.5
84638.9
84640.4
84642.1
84643.7
84645.4
84647.1
84648.8
84650.4
84652
84653.6
84655.1
84656.4
84657.7
84658.9
84659.9
84660.8
84661.4
84662
84662.3
84662.6
84593.8
84593.3
84592.9
84591.8
84590.7
84589
84587.4
84585.2
84583.2
84580.6
84578.2
84575.3
84572.7
84569.6
84566.9
84563.8
84561
84558
84555.4
84552.6
84550.2
84547.8
84545.7
84543.7
84542.1
84540.6
84539.5
84538.5
84538
84537.6
84537.6
84537.9
84538.5
84539.4
84540.5
84541.9
84543.5
84545.5
84547.5
84550
84552.3
84555.1
84557.7
84560.7
84563.4
84566.5
84569.2
84572.2
84574.9
84577.7
84580.1
84582.7
84584.7
84586.9
84588.5
84590.2
84591.2
84592.3
84592.8
84593.3
84683.6
84683.1
84682.5
84681.4
84680.2
84678.5
84676.7
84674.5
84672.2
84669.6
84666.8
84664
84660.9
84657.9
84654.7
84651.6
84648.5
84645.5
84642.5
84639.7
84637
84634.6
84632.2
84630.2
84628.4
84626.8
84625.6
84624.6
84624
84623.6
84623.6
84623.9
84624.5
84625.4
84626.7
84628.2
84629.9
84632
84634.2
84636.7
84639.3
84642.1
84645.1
84648
84651.1
84654.2
84657.3
84660.4
84663.3
84666.2
84668.9
84671.5
84673.8
84676
84677.8
84679.5
84680.7
84681.8
84682.3
84682.9
84609.3
84608.4
84607.6
84605.5
84603.6
84600.5
84597.7
84593.6
84590
84585.2
84580.9
84575.6
84570.9
84565.3
84560.5
84554.8
84550
84544.5
84539.9
84534.9
84530.7
84526.3
84522.8
84519.2
84516.4
84513.7
84511.7
84510.1
84509.1
84508.5
84508.5
84509
84510
84511.6
84513.5
84516.1
84518.9
84522.5
84526
84530.4
84534.6
84539.5
84544.1
84549.5
84554.3
84559.9
84564.8
84570.3
84575
84580.3
84584.5
84589.3
84592.9
84597
84599.8
84602.9
84604.8
84606.8
84607.7
84608.5
84716.7
84715.8
84714.8
84712.7
84710.4
84707.2
84703.8
84699.8
84695.4
84690.6
84685.6
84680.3
84674.7
84669.1
84663.4
84657.7
84652
84646.5
84641.1
84636.1
84631.2
84626.7
84622.5
84618.9
84615.6
84612.9
84610.6
84608.9
84607.7
84607.1
84607.1
84607.7
84608.8
84610.4
84612.6
84615.3
84618.5
84622.2
84626.3
84630.7
84635.5
84640.6
84645.9
84651.4
84657
84662.7
84668.4
84674
84679.4
84684.8
84689.8
84694.6
84698.9
84702.9
84706.3
84709.4
84711.7
84713.8
84714.8
84715.7
84642.2
84640.5
84639
84635.1
84631.7
84625.8
84620.7
84613.1
84606.5
84597.6
84590
84580.2
84571.8
84561.6
84552.9
84542.7
84534.1
84524.4
84516.3
84507.3
84500
84492.2
84486
84479.7
84474.8
84470.1
84466.7
84463.8
84462.1
84461.1
84461.1
84462
84463.7
84466.5
84469.9
84474.5
84479.4
84485.6
84491.8
84499.5
84506.9
84515.7
84523.8
84533.5
84542.1
84552.2
84560.9
84571
84579.4
84589.1
84596.8
84605.6
84612.2
84619.7
84624.9
84630.7
84634.1
84637.9
84639.5
84641.1
84772.5
84770.7
84768.7
84764.7
84760.5
84754.5
84748.1
84740.5
84732.4
84723.4
84714.1
84704.2
84694.1
84683.7
84673.3
84662.8
84652.6
84642.5
84632.9
84623.7
84615
84606.9
84599.6
84593
84587.2
84582.3
84578.3
84575.3
84573.3
84572.2
84572.2
84573.2
84575.1
84578.1
84582
84586.9
84592.5
84599.2
84606.4
84614.5
84623
84632.2
84641.7
84651.8
84661.9
84672.4
84682.6
84693.1
84703.1
84713
84722.2
84731.3
84739.2
84746.9
84753.2
84759.2
84763.4
84767.4
84769.3
84771.1
84708
84704.9
84702
84694.5
84688.2
84676.9
84667.4
84653
84641
84624.2
84610.3
84592.1
84577.1
84558.4
84543
84524.5
84509.4
84492
84477.8
84462
84449.4
84435.8
84425.1
84414.1
84405.7
84397.6
84391.9
84386.9
84384
84382.3
84382.3
84383.8
84386.8
84391.6
84397.3
84405.3
84413.7
84424.5
84435.3
84448.7
84461.4
84477
84491.2
84508.5
84523.7
84542
84557.4
84576
84591.1
84609.1
84623
84639.7
84651.7
84666.1
84675.6
84686.8
84693.2
84700.6
84703.4
84706.6
84869.7
84866.1
84862.3
84854.5
84846.3
84834.6
84822.6
84807.7
84792.7
84775.4
84758.3
84739.5
84721.2
84701.7
84683
84663.7
84645.6
84627.2
84610.3
84593.6
84578.6
84564.1
84551.4
84539.6
84529.8
84521.1
84514.4
84509.1
84505.6
84503.8
84503.7
84505.5
84508.8
84514.1
84520.7
84529.4
84539.1
84550.9
84563.3
84577.9
84592.7
84609.5
84626.1
84644.6
84662.5
84681.9
84700.3
84719.9
84738
84756.9
84773.8
84791.2
84806
84820.9
84832.8
84844.5
84852.6
84860.6
84864.3
84867.8
84837.3
84830.9
84825.4
84810.1
84798.1
84775.2
84757.5
84728.8
84706.7
84674.1
84649
84614.5
84587.7
84553.1
84526
84492.7
84466.5
84435.7
84411.4
84384
84362.6
84339.3
84321.4
84302.8
84288.8
84275.3
84265.8
84257.5
84252.7
84249.9
84249.9
84252.6
84257.4
84265.5
84275
84288.4
84302.3
84320.7
84338.7
84361.7
84383.2
84410.4
84434.8
84465.3
84491.6
84524.7
84551.9
84586.2
84613.1
84647.3
84672.6
84704.9
84727.1
84755.7
84773.4
84796.2
84808.3
84823.4
84828.9
84835.3
85044.9
85037.4
85029.8
85013.3
84997.1
84973
84949.9
84919.8
84891.6
84857.5
84825.9
84789.6
84756.5
84719.8
84686.8
84651.1
84619.7
84586.4
84557.6
84527.7
84502.5
84477
84456
84435.6
84419.4
84404.5
84393.4
84384.3
84378.7
84375.7
84375.6
84378.6
84384
84393.1
84403.9
84418.9
84434.9
84455.4
84476.1
84501.6
84526.6
84556.5
84585
84618.4
84649.5
84685.4
84717.9
84754.9
84787.5
84824.1
84855.2
84889.6
84917.4
84947.7
84970.5
84994.8
85010.7
85027.3
85034.9
85042.4
85092.7
85078.2
85067.3
85032.4
85008.8
84958.3
84924.4
84863.9
84822.5
84757.1
84711.3
84645.1
84597.6
84533.8
84486.9
84427.6
84383.3
84330.1
84289.9
84243.8
84208.9
84170.5
84141.7
84111.6
84089.5
84067.8
84052.8
84039.7
84032.2
84027.8
84027.8
84032
84039.5
84052.5
84067.4
84088.9
84111
84141
84169.8
84207.9
84242.9
84288.7
84329
84381.9
84426.3
84485.2
84532.2
84595.7
84643.4
84709.1
84755.1
84820.1
84861.7
84921.8
84955.9
85006.1
85029.8
85064.5
85075.5
85089.9
85374
85356.1
85339.5
85300.7
85267.4
85213
85167.2
85102.6
85048.6
84978.6
84920.6
84849.2
84790.6
84721
84664.4
84599.3
84546.8
84487.9
84440.9
84389.6
84349.2
84306.3
84273.3
84239.5
84214.4
84189.9
84173
84158.3
84149.7
84144.8
84144.6
84149.6
84157.9
84172.7
84189.3