# vtk DataFile Version 3.0
Structured Grid Example
ASCII
DATASET STRUCTURED_GRID
DIMENSIONS 10 10 1
POINTS 100 float
0 0 0
1 0 0
2 0 0
3 0 0
4 0 0
5 0 0
6 0 0
7 0 0
8 0 0
9 0 0
0 1 0
1 1 0
2 1 0
3 1 0
4 1 0
5 1 0
6 1 0
7 1 0
8 1 0
9 1 0
0 2 0
1 2 0
2 2 0
3 2 0
4 2 0
5 2 0
6 2 0
7 2 0
8 2 0
9 2 0
0 3 0
1 3 0
2 3 0
3 3 0
4 3 0
5 3 0
6 3 0
7 3 0
8 3 0
9 3 0
0 4 0
1 4 0
2 4 0
3 4 0
4 4 0
5 4 0
6 4 0
7 4 0
8 4 0
9 4 0
0 5 0
1 5 0
2 5 0
3 5 0
4 5 0
5 5 0
6 5 0
7 5 0
8 5 0
9 5 0
0 6 0
1 6 0
2 6 0
3 6 0
4 6 0
5 6 0
6 6 0
7 6 0
8 6 0
9 6 0
0 7 0
1 7 0
2 7 0
3 7 0
4 7 0
5 7 0
6 7 0
7 7 0
8 7 0
9 7 0
0 8 0
1 8 0
2 8 0
3 8 0
4 8 0
5 8 0
6 8 0
7 8 0
8 8 0
9 8 0
0 9 0
1 9 0
2 9 0
3 9 0
4 9 0
5 9 0
6 9 0
7 9 0
8 9 0
9 9 0
POINT_DATA 100
SCALARS pressure float 1
LOOKUP_TABLE default
95191.8
95191.8
95191.8
95191.8
95191.8
95191.8
95191.8
95191.8
95191.8
95191.8
95191.8
95191.8
95191.8
95191.8
95191.8
95191.8
95191.8
95191.8
95191.8
95191.8
95113.8
95130.8
95130.8
95113.8
95115.1
95095.8
95100.1
95062.6
95142.5
95100.1
95409.5
95575.8
95575.8
95409.5
95419.2
95250.4
95271.9
95075.9
95110.3
95271.9
95262.5
95370.3
95370.3
95262.5
95268.2
95159.5
95172.8
95042.5
95064.6
95172.8
94947.5
94756.9
94756.9
94947.5
94931.1
95120.8
95081.2
95304.3
95234.8
95081.2
94979.5
94853.1
94853.1
94979.5
94960.2
95088.3
95045.6
95199.8
95129.3
95240.1
95222.8
95247.2
95247.2
95222.8
95229.3
95207.2
95225.5
95193.3
95230.7
95191
95191.8
95191.8
95191.8
95191.8
95191.8
95191.8
95191.8
95191.8
95191.8
95191.8
95191.8
95191.8
95191.8
95191.8
95191.8
95191.8
95191.8
95191.8
95191.8
95191.8
