# vtk DataFile Version 3.0
Structured Grid Example
ASCII
DATASET STRUCTURED_GRID
DIMENSIONS 10 10 1
POINTS 100 float
0 0 0
1 0 0
2 0 0
3 0 0
4 0 0
5 0 0
6 0 0
7 0 0
8 0 0
9 0 0
0 1 0
1 1 0
2 1 0
3 1 0
4 1 0
5 1 0
6 1 0
7 1 0
8 1 0
9 1 0
0 2 0
1 2 0
2 2 0
3 2 0
4 2 0
5 2 0
6 2 0
7 2 0
8 2 0
9 2 0
0 3 0
1 3 0
2 3 0
3 3 0
4 3 0
5 3 0
6 3 0
7 3 0
8 3 0
9 3 0
0 4 0
1 4 0
2 4 0
3 4 0
4 4 0
5 4 0
6 4 0
7 4 0
8 4 0
9 4 0
0 5 0
1 5 0
2 5 0
3 5 0
4 5 0
5 5 0
6 5 0
7 5 0
8 5 0
9 5 0
0 6 0
1 6 0
2 6 0
3 6 0
4 6 0
5 6 0
6 6 0
7 6 0
8 6 0
9 6 0
0 7 0
1 7 0
2 7 0
3 7 0
4 7 0
5 7 0
6 7 0
7 7 0
8 7 0
9 7 0
0 8 0
1 8 0
2 8 0
3 8 0
4 8 0
5 8 0
6 8 0
7 8 0
8 8 0
9 8 0
0 9 0
1 9 0
2 9 0
3 9 0
4 9 0
5 9 0
6 9 0
7 9 0
8 9 0
9 9 0
POINT_DATA 100
SCALARS pressure float 1
LOOKUP_TABLE default
95191.8
95191.8
95191.8
95191.8
95191.8
95191.8
95191.8
95191.8
95191.8
95191.8
95191.8
95191.8
95191.8
95191.8
95191.8
95191.8
95191.8
95191.8
95191.8
95191.8
95052.5
95052
95052
95052.5
95053.2
95053.6
95053.3
95053.9
95139.1
95053.3
94729.7
94724.9
94724.9
94729.7
94733.4
94738.2
94739.6
94739
95153.3
94739.6
94555.8
94548.7
94548.7
94555.8
94563.8
94569.7
94572
94572.4
94993
94572
94179
94172.4
94172.4
94179
94187.7
94193.1
94193.4
94196
94655.6
94193.4
94093.8
94087.5
94087.5
94093.8
94098.5
94106
94105.8
94107.1
94561.3
95066.7
94257.3
94253.9
94253.9
94257.3
94260.8
94261.6
94258.7
94261.9
94205.4
95078.7
94239.8
94239.8
94239.8
94239.8
94239.8
94239.8
94239.8
94239.8
94239.8
94239.8
94239.8
94239.8
94239.8
94239.8
94239.8
94239.8
94239.8
94239.8
94239.8
94239.8
