# vtk DataFile Version 3.0
Structured Grid Example
ASCII
DATASET STRUCTURED_GRID
DIMENSIONS 10 10 1
POINTS 100 float
0 0 0
1 0 0
2 0 0
3 0 0
4 0 0
5 0 0
6 0 0
7 0 0
8 0 0
9 0 0
0 1 0
1 1 0
2 1 0
3 1 0
4 1 0
5 1 0
6 1 0
7 1 0
8 1 0
9 1 0
0 2 0
1 2 0
2 2 0
3 2 0
4 2 0
5 2 0
6 2 0
7 2 0
8 2 0
9 2 0
0 3 0
1 3 0
2 3 0
3 3 0
4 3 0
5 3 0
6 3 0
7 3 0
8 3 0
9 3 0
0 4 0
1 4 0
2 4 0
3 4 0
4 4 0
5 4 0
6 4 0
7 4 0
8 4 0
9 4 0
0 5 0
1 5 0
2 5 0
3 5 0
4 5 0
5 5 0
6 5 0
7 5 0
8 5 0
9 5 0
0 6 0
1 6 0
2 6 0
3 6 0
4 6 0
5 6 0
6 6 0
7 6 0
8 6 0
9 6 0
0 7 0
1 7 0
2 7 0
3 7 0
4 7 0
5 7 0
6 7 0
7 7 0
8 7 0
9 7 0
0 8 0
1 8 0
2 8 0
3 8 0
4 8 0
5 8 0
6 8 0
7 8 0
8 8 0
9 8 0
0 9 0
1 9 0
2 9 0
3 9 0
4 9 0
5 9 0
6 9 0
7 9 0
8 9 0
9 9 0
POINT_DATA 100
SCALARS pressure float 1
LOOKUP_TABLE default
95191.8
95191.8
95191.8
95191.8
95191.8
95191.8
95191.8
95191.8
95191.8
95191.8
95191.8
95191.8
95191.8
95191.8
95191.8
95191.8
95191.8
95191.8
95191.8
95191.8
88093.8
87172.5
87172.5
88093.8
89078.4
88568.6
86679.9
88434.7
92682.5
86679.9
39679.3
40131
40131
39679.3
39131.2
39593.7
40705.4
39691.7
97169.8
40705.4
96656.4
96460
96460
96656.4
96862
96736.4
96322.5
96699.4
90490.9
96322.5
22354.9
22635.3
22635.3
22354.9
22040.4
22421.9
23289.8
22500.5
38430.5
23289.8
98347.4
98474.8
98474.8
98347.4
98160.8
98297.2
98602.6
98316.1
97107.5
95010
13744.2
13589
13589
13744.2
13976.3
14076.2
14040.6
14098.4
21445.3
94740.1
94239.8
94239.8
94239.8
94239.8
94239.8
94239.8
94239.8
94239.8
94239.8
94239.8
94239.8
94239.8
94239.8
94239.8
94239.8
94239.8
94239.8
94239.8
94239.8
94239.8
