# vtk DataFile Version 3.0
Structured Grid Example
ASCII
DATASET STRUCTURED_GRID
DIMENSIONS 10 10 1
POINTS 100 float
0 0 0
1 0 0
2 0 0
3 0 0
4 0 0
5 0 0
6 0 0
7 0 0
8 0 0
9 0 0
0 1 0
1 1 0
2 1 0
3 1 0
4 1 0
5 1 0
6 1 0
7 1 0
8 1 0
9 1 0
0 2 0
1 2 0
2 2 0
3 2 0
4 2 0
5 2 0
6 2 0
7 2 0
8 2 0
9 2 0
0 3 0
1 3 0
2 3 0
3 3 0
4 3 0
5 3 0
6 3 0
7 3 0
8 3 0
9 3 0
0 4 0
1 4 0
2 4 0
3 4 0
4 4 0
5 4 0
6 4 0
7 4 0
8 4 0
9 4 0
0 5 0
1 5 0
2 5 0
3 5 0
4 5 0
5 5 0
6 5 0
7 5 0
8 5 0
9 5 0
0 6 0
1 6 0
2 6 0
3 6 0
4 6 0
5 6 0
6 6 0
7 6 0
8 6 0
9 6 0
0 7 0
1 7 0
2 7 0
3 7 0
4 7 0
5 7 0
6 7 0
7 7 0
8 7 0
9 7 0
0 8 0
1 8 0
2 8 0
3 8 0
4 8 0
5 8 0
6 8 0
7 8 0
8 8 0
9 8 0
0 9 0
1 9 0
2 9 0
3 9 0
4 9 0
5 9 0
6 9 0
7 9 0
8 9 0
9 9 0
POINT_DATA 100
SCALARS pressure float 1
LOOKUP_TABLE default
95191.8
95191.8
95191.8
95191.8
95191.8
95191.8
95191.8
95191.8
95191.8
95191.8
95191.8
95191.8
95191.8
95191.8
95191.8
95191.8
95191.8
95191.8
95191.8
95191.8
94431.9
94428.4
94428.4
94431.9
94435.9
94437.9
94435.6
94438.7
94905
94435.6
94144.6
94139.4
94139.4
94144.6
94149.1
94157
94160.9
94159
94914.7
94160.9
94152
94144.7
94144.7
94152
94160.9
94165
94164.1
94167.4
94451.8
94164.1
94130.9
94127.9
94127.9
94130.9
94136.5
94141.2
94143.7
94144.2
94158.8
94143.7
93998.7
93993.5
93993.5
93998.7
94003.7
94008.6
94006.1
94009.5
94190.5
94940.1
94467.9
94468.9
94468.9
94467.9
94467.5
94467.8
94468
94468.1
94179
94948.1
94239.8
94239.8
94239.8
94239.8
94239.8
94239.8
94239.8
94239.8
94239.8
94239.8
94239.8
94239.8
94239.8
94239.8
94239.8
94239.8
94239.8
94239.8
94239.8
94239.8
