# vtk DataFile Version 3.0
Structured Grid Example
ASCII
DATASET STRUCTURED_GRID
DIMENSIONS 10 10 1
POINTS 100 float
0 0 0
1 0 0
2 0 0
3 0 0
4 0 0
5 0 0
6 0 0
7 0 0
8 0 0
9 0 0
0 1 0
1 1 0
2 1 0
3 1 0
4 1 0
5 1 0
6 1 0
7 1 0
8 1 0
9 1 0
0 2 0
1 2 0
2 2 0
3 2 0
4 2 0
5 2 0
6 2 0
7 2 0
8 2 0
9 2 0
0 3 0
1 3 0
2 3 0
3 3 0
4 3 0
5 3 0
6 3 0
7 3 0
8 3 0
9 3 0
0 4 0
1 4 0
2 4 0
3 4 0
4 4 0
5 4 0
6 4 0
7 4 0
8 4 0
9 4 0
0 5 0
1 5 0
2 5 0
3 5 0
4 5 0
5 5 0
6 5 0
7 5 0
8 5 0
9 5 0
0 6 0
1 6 0
2 6 0
3 6 0
4 6 0
5 6 0
6 6 0
7 6 0
8 6 0
9 6 0
0 7 0
1 7 0
2 7 0
3 7 0
4 7 0
5 7 0
6 7 0
7 7 0
8 7 0
9 7 0
0 8 0
1 8 0
2 8 0
3 8 0
4 8 0
5 8 0
6 8 0
7 8 0
8 8 0
9 8 0
0 9 0
1 9 0
2 9 0
3 9 0
4 9 0
5 9 0
6 9 0
7 9 0
8 9 0
9 9 0
POINT_DATA 100
SCALARS pressure float 1
LOOKUP_TABLE default
95191.8
95191.8
95191.8
95191.8
95191.8
95191.8
95191.8
95191.8
95191.8
95191.8
95191.8
95191.8
95191.8
95191.8
95191.8
95191.8
95191.8
95191.8
95191.8
95191.8
93787.1
93822.4
93822.4
93787.1
93742.8
93791.4
93892.7
93802.7
94664.1
93892.7
101323
101344
101344
101323
101323
101235
101164
101222
94418.3
101164
92676.2
92690.4
92690.4
92676.2
92655.8
92709
92794.5
92723.2
93655.9
92794.5
102901
102938
102938
102901
102896
102802
102740
102794
101346
102740
93123
93121.6
93121.6
93123
93122.2
93153.5
93188.8
93161.8
92803.7
94601.7
104121
104173
104173
104121
104100
103999
103944
103989
102941
94686
94239.8
94239.8
94239.8
94239.8
94239.8
94239.8
94239.8
94239.8
94239.8
94239.8
94239.8
94239.8
94239.8
94239.8
94239.8
94239.8
94239.8
94239.8
94239.8
94239.8
