# vtk DataFile Version 3.0
Structured Grid Example
ASCII
DATASET STRUCTURED_GRID
DIMENSIONS 10 10 1
POINTS 100 float
0 0 0
1 0 0
2 0 0
3 0 0
4 0 0
5 0 0
6 0 0
7 0 0
8 0 0
9 0 0
0 1 0
1 1 0
2 1 0
3 1 0
4 1 0
5 1 0
6 1 0
7 1 0
8 1 0
9 1 0
0 2 0
1 2 0
2 2 0
3 2 0
4 2 0
5 2 0
6 2 0
7 2 0
8 2 0
9 2 0
0 3 0
1 3 0
2 3 0
3 3 0
4 3 0
5 3 0
6 3 0
7 3 0
8 3 0
9 3 0
0 4 0
1 4 0
2 4 0
3 4 0
4 4 0
5 4 0
6 4 0
7 4 0
8 4 0
9 4 0
0 5 0
1 5 0
2 5 0
3 5 0
4 5 0
5 5 0
6 5 0
7 5 0
8 5 0
9 5 0
0 6 0
1 6 0
2 6 0
3 6 0
4 6 0
5 6 0
6 6 0
7 6 0
8 6 0
9 6 0
0 7 0
1 7 0
2 7 0
3 7 0
4 7 0
5 7 0
6 7 0
7 7 0
8 7 0
9 7 0
0 8 0
1 8 0
2 8 0
3 8 0
4 8 0
5 8 0
6 8 0
7 8 0
8 8 0
9 8 0
0 9 0
1 9 0
2 9 0
3 9 0
4 9 0
5 9 0
6 9 0
7 9 0
8 9 0
9 9 0
POINT_DATA 100
SCALARS pressure float 1
LOOKUP_TABLE default
95191.8
95191.8
95191.8
95191.8
95191.8
95191.8
95191.8
95191.8
95191.8
95191.8
95191.8
95191.8
95191.8
95191.8
95191.8
95191.8
95191.8
95191.8
95191.8
95191.8
95121
95136.4
95136.4
95121
95122.1
95104.5
95108.5
95074.3
95146.9
95108.5
95391
95542.6
95542.6
95391
95399.7
95245.8
95265.2
95086.5
95117.6
95265.2
95255
95352.6
95352.6
95255
95260.4
95161.9
95174.4
95056.1
95076.5
95174.4
94969.2
94797.2
94797.2
94969.2
94954.8
95125.9
95090.8
95292.6
95230.9
95090.8
95001.4
94889.2
94889.2
95001.4
94984
95097.8
95059.4
95196.8
95133.8
95234.8
95215.5
95236.1
95236.1
95215.5
95222.1
95203.9
95221.1
95193.4
95226.5
95191.9
95191.8
95191.8
95191.8
95191.8
95191.8
95191.8
95191.8
95191.8
95191.8
95191.8
95191.8
95191.8
95191.8
95191.8
95191.8
95191.8
95191.8
95191.8
95191.8
95191.8
